:RELAXSTEP: 44
:E(Ha): -3.901727840356707E+03
:R(Bohr):
   2.619056187269407    1.537534047277411   48.517276054381561
   2.619036270323891    1.563811987225415   50.788168720719057
   0.000991860614118    2.995099652017544   28.090827591179746
   5.237012210746015    2.995120625416637   28.090801410592608
  10.476119215250018    2.992838881159983   28.065470860159436
   2.619007439538704    7.532926503724687   28.098450159179123
   7.852566991747296    7.532082948876459   28.072311442461572
  13.099567788506455    7.532026435769567   28.072359590575832
   0.005327043607502    9.038855133411822   32.532109847523216
   5.232832210926150    9.038956761672766   32.532221221245379
  10.476049999954331    9.043251759024717   32.485625600955380
   2.619110762047684    4.502894983789165   32.536701525131136
   7.850712927588870    4.505816140054502   32.497208589526309
  13.101450733730951    4.505744212344037   32.497183837945627
   2.619145525144106    1.522384624924702   36.934611110519455
   7.856762660671297    1.518157782619462   36.877469833467565
  13.095467452030581    1.518092423243797   36.877416008682900
   0.000491985861916    6.058968393061756   36.919397053399912
   5.237692755993556    6.058943985462601   36.919516530551064
  10.476016658573359    6.059809084378353   36.835963065941186
   0.017233241256792    3.042708006595204   41.324376709997757
   5.220874218817851    3.042672717122746   41.324610978395789
  10.476035771978168    3.096848221875482   41.217871151796579
   2.619004100302775    7.572114164587321   41.388810714491129
   7.831011876088508    7.621127026748761   41.284035702510614
  13.121173832582929    7.621235697008866   41.283860227941325
  15.674827606371759    9.028813144838040   45.968468173937033
   5.277378886032962    9.028816470769861   45.968575873395643
  10.476079527589604    0.034910772699692   45.660072487741296
   2.618970571846009    4.507600084829047   45.961347099363607
   7.884190760473905    4.572064394168449   45.690119265666006
  13.068024496761783    4.572025911155364   45.689774923278719
:ISFD: 0
:ISRESET: 0
:STEP: 8
:DX:
   0.000028054832837
  -0.003408859374607
   0.081826124202131
   0.000029841672121
  -0.000977471204689
   0.011336688674959
   0.002263075221954
  -0.008081496846036
  -0.031392799025145
  -0.002112129839046
  -0.008044941980594
  -0.031294159602677
  -0.000173170306345
  -0.010394254240675
  -0.045513284125217
   0.000149860023039
  -0.008234685558913
  -0.026021549891475
  -0.002091666164274
  -0.009524476410847
  -0.040601621211572
   0.001952209886225
  -0.009497932845063
  -0.040738240392589
   0.002776000589130
  -0.011228638894140
  -0.024134707585766
  -0.002397790902956
  -0.011303916867131
  -0.023953549320019
  -0.000376746419422
  -0.000713074405001
  -0.044498803715840
   0.000311588928153
  -0.013758562467719
  -0.017420951134632
  -0.002560476058997
  -0.003995995496136
  -0.038694394699959
   0.002255453693637
  -0.004106912531397
  -0.038877350354376
   0.000322378585733
  -0.000241766893736
   0.005834034519275
   0.000889230851970
   0.005827998262459
  -0.017531291368073
  -0.001111488730254
   0.005761184967724
  -0.017358881800874
  -0.001340354259643
   0.002137378544309
  -0.004232282955300
   0.001915876982249
   0.002185619717651
  -0.004468310889564
  -0.000605253304411
   0.008109142371985
  -0.023932239994430
  -0.004339523006322
   0.013663596734143
   0.014638123270274
   0.004565847321962
   0.013876515095459
   0.014654530622778
  -0.000326932072200
   0.007858001134792
   0.006831463033095
   0.000248173167461
   0.011016622654628
   0.019856061174245
   0.003740580941894
   0.008978258883705
   0.013728849471342
  -0.003914858507072
   0.009087244003067
   0.013734202853833
   0.002904868131443
   0.003300289320633
   0.053683133466251
  -0.002858332170216
   0.003170080386907
   0.053729189557096
  -0.000146459188844
   0.001083179911987
   0.040932360933958
   0.000152060633901
   0.001412799754532
   0.058516076096524
  -0.001496410473686
   0.003046512165919
   0.040649557412046
   0.001346489939976
   0.002998562106784
   0.040714022779710
  -0.000009116302200
   0.000999594357385
  -0.049619908176531
  -0.000011085662559
   0.000511107332050
   0.020723462397427
  -0.000730803182359
   0.002446245398326
   0.009777928053889
   0.000678327539942
   0.002432946008919
   0.009743199408568
   0.000059904630305
   0.003226544184399
   0.014133304990835
  -0.000051597101908
   0.002519160699367
   0.008098659827152
   0.000675790775761
   0.002942858086806
   0.012615854749583
  -0.000627687138110
   0.002933855367067
   0.012665012498921
  -0.000946186137347
   0.003519290270095
   0.007713555899073
   0.000812193354066
   0.003546333597352
   0.007648510480763
   0.000133928083912
   0.000193833994711
   0.014068263999683
  -0.000110598232390
   0.004253884735065
   0.005627587380339
   0.000882478263439
   0.001212737225871
   0.012277590909662
  -0.000774132161121
   0.001252095878988
   0.012345957196395
  -0.000111513021503
   0.000078327633278
  -0.001748436547700
  -0.000252105775220
  -0.001822966059425
   0.005517347249821
   0.000330734398606
  -0.001800766687942
   0.005454575045064
   0.000392311938673
  -0.000645812739721
   0.001386684682899
  -0.000596179657277
  -0.000661380905786
   0.001470286032045
   0.000214935526669
  -0.002555038740833
   0.007517899562075
   0.001438179682361
  -0.004288124835525
  -0.004335085889736
  -0.001517290301870
  -0.004362371701987
  -0.004340710605184
   0.000113511305607
  -0.002399397709880
  -0.001997161118858
  -0.000085508912738
  -0.003362555310667
  -0.006024596349441
  -0.001223421347401
  -0.002723913859645
  -0.004201806813050
   0.001283228414431
  -0.002766401527320
  -0.004206019492450
  -0.000997136582926
  -0.001094938823286
  -0.017209398178466
   0.000979635446455
  -0.001050193720790
  -0.017223088453264
   0.000050282319465
  -0.000242195007296
  -0.013140930825458
  -0.000052157781618
  -0.000343145867715
  -0.018664957223258
   0.000421209445214
  -0.000983831916512
  -0.013023938722931
  -0.000370131826360
  -0.000965779355351
  -0.013049641967854
  -0.000002708758660
   0.000300459826006
  -0.009444281179832
  -0.000004781608992
   0.000068720909099
  -0.000796690950018
  -0.000234385250278
   0.000578414319249
   0.002654767790627
   0.000215543455694
   0.000572933227375
   0.002641797978814
   0.000021313684289
   0.000844891178703
   0.003760795456163
  -0.000018067708949
   0.000627885960737
   0.002206935127358
   0.000225311847837
   0.000753203384240
   0.003368087700494
  -0.000208410106957
   0.000750183004020
   0.003387455729008
  -0.000323575154447
   0.000957973439727
   0.002392944506973
   0.000272615201081
   0.000968445372793
   0.002367053397421
   0.000051448383731
   0.000023544621889
   0.004070478135667
  -0.000042048154759
   0.001099522067542
   0.001848041199203
   0.000316325479335
   0.000290490637474
   0.003605741467609
  -0.000275018587631
   0.000305794524308
   0.003635533039649
  -0.000041002796360
   0.000041318693772
  -0.000334178921250
  -0.000066936238657
  -0.000490849996178
   0.001629470387265
   0.000097424706041
  -0.000483598293295
   0.001605545649952
   0.000106859207697
  -0.000147626950326
   0.000543265923220
  -0.000184791313188
  -0.000151205575828
   0.000573381264694
   0.000083236499371
  -0.000716699518136
   0.002148205022586
   0.000490404418585
  -0.001172557106167
  -0.000846828886381
  -0.000521783162011
  -0.001198359389742
  -0.000847934827142
   0.000043053205378
  -0.000567483416939
  -0.000326760605525
  -0.000032120243462
  -0.000807550789147
  -0.001378118232736
  -0.000381732073367
  -0.000663558689989
  -0.000983487221461
   0.000404401707506
  -0.000682806159499
  -0.000986962988272
  -0.000393558491227
  -0.000364378849603
  -0.004904391409077
   0.000384103054220
  -0.000349246294286
  -0.004905481407334
   0.000019224875388
   0.000005049451032
  -0.003834081144333
  -0.000019680076498
   0.000100409267636
  -0.005321413353293
   0.000109873495242
  -0.000250173981478
  -0.003757835126748
  -0.000090539495950
  -0.000243144874985
  -0.003771053523309
  -0.000004226477442
   0.000292802059609
  -0.007026893195594
  -0.000009411917944
  -0.000013175059081
  -0.007011062234454
  -0.000272612458319
   0.000374663010234
   0.002647781091351
   0.000228887381779
   0.000362528419422
   0.002617032400771
   0.000046633378116
   0.000741315130858
   0.003495579338846
  -0.000040795361473
   0.000528025329223
   0.002322597211737
   0.000246810854443
   0.000665235401639
   0.003269239812770
  -0.000216669921627
   0.000654802411185
   0.003313884841958
  -0.000538271245487
   0.000919742443923
   0.002771023540760
   0.000427616064614
   0.000937449098323
   0.002708830051354
   0.000110092065894
  -0.000073055774186
   0.004422033542269
  -0.000098428139618
   0.001009945619457
   0.002180760500060
   0.000521856844971
   0.000257126164650
   0.003981486362314
  -0.000416263663070
   0.000268541495959
   0.004084438938257
  -0.000084574315184
   0.000000039023125
  -0.000064031823882
   0.000096666237340
  -0.000465103631158
   0.001747918961662
  -0.000006446065901
  -0.000457209220981
   0.001671892985456
  -0.000018796123410
  -0.000063260254458
   0.000777861253511
  -0.000135439673906
  -0.000059495046384
   0.000882253478842
   0.000162864761736
  -0.000756132452719
   0.002252906101369
   0.000657759320968
  -0.001215628978108
  -0.000157591230611
  -0.000714715452832
  -0.001259496130583
  -0.000135977578040
   0.000077717277369
  -0.000368005816456
   0.000026001875632
  -0.000059653271920
  -0.000483890243719
  -0.000895893365566
  -0.000464629646835
  -0.000462190963967
  -0.000684027812881
   0.000497235413189
  -0.000494393489029
  -0.000714369636000
  -0.000600399896834
  -0.000531895402212
  -0.005244942127213
   0.000584292227935
  -0.000505697736292
  -0.005245474505351
   0.000030573628599
   0.000187257971216
  -0.004248951870373
  -0.000039648648059
   0.000480691881506
  -0.005598047187732
   0.000127992473260
  -0.000239707157259
  -0.004035280862873
  -0.000096015650350
  -0.000231828103738
  -0.004110978858364
   0.000001072867938
  -0.000423375094284
  -0.004670696178664
  -0.000012452481037
  -0.000157867786302
  -0.005953532044344
  -0.000184243486428
  -0.002237076605091
  -0.003746312525777
   0.000124951008468
  -0.002248509873477
  -0.003782427843781
   0.000064419256272
  -0.001772927068977
  -0.006255386923481
  -0.000054936928858
  -0.002018544867664
  -0.003310041464093
   0.000266050789397
  -0.001798948590073
  -0.005558597671687
  -0.000194891789127
  -0.001792823392093
  -0.005506336213884
  -0.000655735363868
  -0.001210556026972
  -0.000167663348314
   0.000518513049168
  -0.001167817630993
  -0.000217440102205
   0.000148378061864
  -0.000622849885220
  -0.002945306913460
  -0.000114253407177
  -0.002371644535833
   0.000864959724041
   0.000863263076635
  -0.001069434796811
  -0.001936800200568
  -0.000761995950327
  -0.000996879286777
  -0.001940441800663
  -0.000132323592796
   0.000443971788443
   0.002221475487005
   0.000300840201541
   0.000883056439476
  -0.000395329574737
  -0.000232505682568
   0.000875413509120
  -0.000411469501891
  -0.000427600471961
   0.000628901769244
   0.001496683436507
   0.000222562380469
   0.000601568272766
   0.001498305319451
   0.000220217094139
   0.000566025396008
  -0.001586298376210
   0.000548170745351
   0.001634511261544
   0.005610643092531
  -0.000657749757599
   0.001577597914351
   0.005571062315070
   0.000129386547165
   0.001981689137211
   0.002843473544871
  -0.000101869279693
   0.002560878469914
   0.005515583524407
  -0.000123621303174
   0.002155422119453
   0.003064341683924
   0.000219893948163
   0.002079956516596
   0.003058776456200
  -0.001359776681559
  -0.000504207084660
   0.003325809847965
   0.001309488390364
  -0.000468076151806
   0.003372331842634
   0.000062189467041
   0.001119075517274
   0.001777922454536
  -0.000047020059297
   0.002642716244583
   0.003684661740081
  -0.000248896415554
   0.000540384519655
   0.002230824338312
   0.000310475767044
   0.000570369801398
   0.002247225876211
  -0.000012291025936
  -0.000892226376243
   0.001686643029053
  -0.000009957221036
   0.000068785687967
  -0.001379860835797
  -0.000084822154169
  -0.002863497218188
  -0.002566244789044
   0.000005144115506
  -0.002868229033580
  -0.002623541158631
   0.000082695196140
  -0.002646984522098
  -0.006693436190162
  -0.000081816656599
  -0.002893745243849
  -0.000821776739244
   0.000037053244649
  -0.002895714586759
  -0.004916893798136
   0.000004415911791
  -0.002923666863179
  -0.004862861212800
  -0.000420501505147
  -0.002544830821618
  -0.001870718138029
   0.000286749198119
  -0.002573067323810
  -0.001951854205821
   0.000124566031202
  -0.000970337112902
  -0.005476522372213
  -0.000152952399803
  -0.002396990955817
  -0.000687946177152
   0.000268025211674
  -0.000917759880792
  -0.004396493138216
  -0.000086490004600
  -0.001003459725455
  -0.004161369028424
  -0.000111249363492
   0.000176846185070
   0.003270976261980
   0.000540814729259
   0.000971461048410
  -0.000464686414610
  -0.000328022551752
   0.001044824245908
  -0.000602670797107
  -0.000348888754881
   0.000601969870834
   0.001826424066508
   0.000186825181277
   0.000666694660304
   0.002051145514720
   0.000157148299321
   0.001331573195067
  -0.001753374739415
   0.000376650821894
   0.002523944865141
   0.004419518338644
  -0.000430241075515
   0.002469347939762
   0.004527458601956
   0.000086202315941
   0.003503131889242
   0.000581881912339
  -0.000088496290334
   0.003580356000754
   0.004284560403192
   0.000302756532172
   0.002666726799836
   0.001188676607306
  -0.000286359807216
   0.002670430126080
   0.001135763878231
  -0.002542544401715
  -0.000463879539765
   0.002777036712558
   0.002535515631854
  -0.000451633467037
   0.002775209455962
   0.000039788468904
   0.001417108984473
   0.002849564589425
  -0.000086525686724
   0.003687566839448
   0.003563460484436
   0.000653790009912
   0.000966134902691
   0.004255221709712
  -0.000616982000698
   0.000959119430108
   0.004036708168769
   0.000019168924907
  -0.000542089237554
   0.008675307495231
   0.000009661825077
  -0.000532495250731
   0.006629985942396
   0.000378080816459
  -0.005547006467197
  -0.003110435056456
  -0.000346042839509
  -0.005528146510806
  -0.003107945405112
  -0.000020723085695
  -0.005154592130794
  -0.010690832196236
  -0.000028029870343
  -0.005121083671925
  -0.000450431436917
  -0.000279270380150
  -0.005120280940835
  -0.007718364827561
   0.000244723927656
  -0.005148733702362
  -0.007675192493078
   0.000419552857085
  -0.003743689233202
  -0.002642850520225
  -0.000332464238521
  -0.003565127872720
  -0.002463697947100
  -0.000113122654346
  -0.001862187983431
  -0.009439326051336
   0.000052614695810
  -0.005617827884103
  -0.000186224030422
  -0.000019096852187
  -0.002318168018228
  -0.006894721436581
   0.000022261681826
  -0.002377667370821
  -0.006940025375386
   0.000198875257574
   0.001042924803196
   0.001346554217726
  -0.000464606151849
   0.002917568812654
  -0.005211269556369
   0.000410419664160
   0.002743575072010
  -0.005133907036736
   0.000594790346134
   0.000613214672472
  -0.000407660690961
  -0.000403518141991
   0.000498526594470
  -0.000371529982452
  -0.000227016890509
   0.002022700925846
  -0.008266524044394
  -0.000238034011287
   0.005227300900266
   0.005148386575506
   0.000228407713371
   0.005273439276343
   0.005177479849841
  -0.000002773376840
   0.005792659667001
   0.000543477002914
  -0.000029065630979
   0.005564974544535
   0.004990615616457
   0.000039453568442
   0.004601849800451
   0.001185582330287
  -0.000050568188007
   0.004747505540134
   0.001099145777445
  -0.001778641945533
   0.001384786992668
   0.007292763662029
   0.001821917705290
   0.001357685997776
   0.007325587948522
  -0.000066904124168
   0.002347384831320
   0.006906764986212
  -0.000050136718772
   0.002913953310020
   0.007996938205736
   0.001539854090869
   0.001617715641930
   0.008325278469009
  -0.001529767973972
   0.001511328891615
   0.008067070008011
   0.000013919434214
   0.000569651813111
  -0.000354268201292
   0.000021122003542
   0.000555501062654
   0.002634747879235
   0.000203816173855
  -0.002350475888342
  -0.000133317260072
  -0.000181810845713
  -0.002326298019240
  -0.000070935492850
  -0.000070512073473
  -0.002837112697768
  -0.001929448374913
   0.000095453939450
  -0.003392915832007
   0.000330866467049
  -0.000447122735781
  -0.002891292227090
  -0.001522981019068
   0.000359374395718
  -0.002903232579354
  -0.001608044533707
   0.000219854207321
  -0.001892313546449
   0.000068432257855
   0.000022930303966
  -0.001965414085177
   0.000089340880123
  -0.000159320842331
  -0.000117660371881
  -0.001984059190399
   0.000266907199875
  -0.001244486717811
   0.000435134787431
  -0.000591791997014
  -0.001243168983282
  -0.001741349534790
   0.000274894836485
  -0.001245171406411
  -0.001915768095991
   0.000071661758587
   0.000006516337542
   0.003438265372189
  -0.000156749121342
   0.000397106888407
   0.001810126487563
   0.000047389072027
   0.000439705388450
   0.001837428029461
  -0.000222605604073
   0.000785816373335
   0.002623024133918
   0.000418572914146
   0.000823958622346
   0.002523549748062
  -0.000165759598969
   0.001922308797202
   0.001248288636781
  -0.001099973953430
   0.002554229804359
  -0.000772881865032
   0.001279283496979
   0.002517198916542
  -0.000667358302309
  -0.000205482543818
   0.001767825504179
  -0.002446283064216
   0.000121111871501
   0.001719281317605
   0.000309287922043
   0.001272325617494
   0.002016267740331
  -0.001336899260984
  -0.001371643006630
   0.002049783851588
  -0.001318252836363
   0.002326375820793
   0.003403489828511
   0.000034689408679
  -0.002325557846437
   0.003430246233338
   0.000011815551439
  -0.000008054798428
   0.000393083698854
  -0.001056515447800
   0.000082318511715
  -0.003249179378224
   0.001037213101952
   0.000194878251919
   0.001120846714879
   0.000149905566346
  -0.000285804842150
   0.001185902839804
   0.000276246249648
   0.000000000000000
   0.000000000000000
   0.000000000000000
   0.000000000000000
   0.000000000000000
   0.000000000000000
   0.000000000000000
   0.000000000000000
   0.000000000000000
   0.000000000000000
   0.000000000000000
   0.000000000000000
   0.000000000000000
   0.000000000000000
   0.000000000000000
   0.000000000000000
   0.000000000000000
   0.000000000000000
   0.000000000000000
   0.000000000000000
   0.000000000000000
   0.000000000000000
   0.000000000000000
   0.000000000000000
   0.000000000000000
   0.000000000000000
   0.000000000000000
   0.000000000000000
   0.000000000000000
   0.000000000000000
   0.000000000000000
   0.000000000000000
   0.000000000000000
   0.000000000000000
   0.000000000000000
   0.000000000000000
   0.000000000000000
   0.000000000000000
   0.000000000000000
   0.000000000000000
   0.000000000000000
   0.000000000000000
   0.000000000000000
   0.000000000000000
   0.000000000000000
   0.000000000000000
   0.000000000000000
   0.000000000000000
   0.000000000000000
   0.000000000000000
   0.000000000000000
   0.000000000000000
   0.000000000000000
   0.000000000000000
   0.000000000000000
   0.000000000000000
   0.000000000000000
   0.000000000000000
   0.000000000000000
   0.000000000000000
   0.000000000000000
   0.000000000000000
   0.000000000000000
   0.000000000000000
   0.000000000000000
   0.000000000000000
   0.000000000000000
   0.000000000000000
   0.000000000000000
   0.000000000000000
   0.000000000000000
   0.000000000000000
   0.000000000000000
   0.000000000000000
   0.000000000000000
   0.000000000000000
   0.000000000000000
   0.000000000000000
   0.000000000000000
   0.000000000000000
   0.000000000000000
   0.000000000000000
   0.000000000000000
   0.000000000000000
   0.000000000000000
   0.000000000000000
   0.000000000000000
   0.000000000000000
   0.000000000000000
   0.000000000000000
   0.000000000000000
   0.000000000000000
   0.000000000000000
   0.000000000000000
   0.000000000000000
   0.000000000000000
   0.000000000000000
   0.000000000000000
   0.000000000000000
   0.000000000000000
   0.000000000000000
   0.000000000000000
   0.000000000000000
   0.000000000000000
   0.000000000000000
   0.000000000000000
   0.000000000000000
   0.000000000000000
   0.000000000000000
   0.000000000000000
   0.000000000000000
   0.000000000000000
   0.000000000000000
   0.000000000000000
   0.000000000000000
   0.000000000000000
   0.000000000000000
   0.000000000000000
   0.000000000000000
   0.000000000000000
   0.000000000000000
   0.000000000000000
   0.000000000000000
   0.000000000000000
   0.000000000000000
   0.000000000000000
   0.000000000000000
   0.000000000000000
   0.000000000000000
   0.000000000000000
   0.000000000000000
   0.000000000000000
   0.000000000000000
   0.000000000000000
   0.000000000000000
   0.000000000000000
   0.000000000000000
   0.000000000000000
   0.000000000000000
   0.000000000000000
   0.000000000000000
   0.000000000000000
   0.000000000000000
   0.000000000000000
   0.000000000000000
   0.000000000000000
   0.000000000000000
   0.000000000000000
   0.000000000000000
   0.000000000000000
   0.000000000000000
   0.000000000000000
   0.000000000000000
   0.000000000000000
   0.000000000000000
   0.000000000000000
   0.000000000000000
   0.000000000000000
   0.000000000000000
   0.000000000000000
   0.000000000000000
   0.000000000000000
   0.000000000000000
   0.000000000000000
   0.000000000000000
   0.000000000000000
   0.000000000000000
   0.000000000000000
   0.000000000000000
   0.000000000000000
   0.000000000000000
   0.000000000000000
   0.000000000000000
   0.000000000000000
   0.000000000000000
   0.000000000000000
   0.000000000000000
   0.000000000000000
   0.000000000000000
   0.000000000000000
   0.000000000000000
   0.000000000000000
   0.000000000000000
   0.000000000000000
   0.000000000000000
   0.000000000000000
   0.000000000000000
   0.000000000000000
   0.000000000000000
   0.000000000000000
   0.000000000000000
   0.000000000000000
   0.000000000000000
   0.000000000000000
   0.000000000000000
   0.000000000000000
   0.000000000000000
   0.000000000000000
   0.000000000000000
   0.000000000000000
   0.000000000000000
   0.000000000000000
   0.000000000000000
   0.000000000000000
   0.000000000000000
   0.000000000000000
   0.000000000000000
   0.000000000000000
   0.000000000000000
   0.000000000000000
   0.000000000000000
   0.000000000000000
   0.000000000000000
   0.000000000000000
   0.000000000000000
   0.000000000000000
   0.000000000000000
   0.000000000000000
   0.000000000000000
   0.000000000000000
   0.000000000000000
   0.000000000000000
   0.000000000000000
   0.000000000000000
   0.000000000000000
   0.000000000000000
   0.000000000000000
   0.000000000000000
   0.000000000000000
   0.000000000000000
   0.000000000000000
   0.000000000000000
   0.000000000000000
   0.000000000000000
   0.000000000000000
   0.000000000000000
   0.000000000000000
   0.000000000000000
   0.000000000000000
   0.000000000000000
   0.000000000000000
   0.000000000000000
   0.000000000000000
   0.000000000000000
   0.000000000000000
   0.000000000000000
   0.000000000000000
   0.000000000000000
   0.000000000000000
   0.000000000000000
   0.000000000000000
   0.000000000000000
   0.000000000000000
   0.000000000000000
   0.000000000000000
   0.000000000000000
   0.000000000000000
   0.000000000000000
   0.000000000000000
   0.000000000000000
   0.000000000000000
   0.000000000000000
   0.000000000000000
   0.000000000000000
   0.000000000000000
   0.000000000000000
   0.000000000000000
   0.000000000000000
   0.000000000000000
   0.000000000000000
   0.000000000000000
   0.000000000000000
   0.000000000000000
   0.000000000000000
   0.000000000000000
   0.000000000000000
   0.000000000000000
   0.000000000000000
   0.000000000000000
   0.000000000000000
   0.000000000000000
   0.000000000000000
   0.000000000000000
   0.000000000000000
   0.000000000000000
   0.000000000000000
   0.000000000000000
   0.000000000000000
   0.000000000000000
   0.000000000000000
   0.000000000000000
   0.000000000000000
   0.000000000000000
   0.000000000000000
   0.000000000000000
   0.000000000000000
   0.000000000000000
   0.000000000000000
   0.000000000000000
   0.000000000000000
   0.000000000000000
   0.000000000000000
   0.000000000000000
   0.000000000000000
   0.000000000000000
   0.000000000000000
   0.000000000000000
   0.000000000000000
   0.000000000000000
   0.000000000000000
   0.000000000000000
   0.000000000000000
   0.000000000000000
   0.000000000000000
   0.000000000000000
   0.000000000000000
   0.000000000000000
   0.000000000000000
   0.000000000000000
   0.000000000000000
   0.000000000000000
   0.000000000000000
   0.000000000000000
   0.000000000000000
   0.000000000000000
   0.000000000000000
   0.000000000000000
   0.000000000000000
   0.000000000000000
   0.000000000000000
   0.000000000000000
   0.000000000000000
   0.000000000000000
   0.000000000000000
   0.000000000000000
   0.000000000000000
   0.000000000000000
   0.000000000000000
   0.000000000000000
   0.000000000000000
   0.000000000000000
   0.000000000000000
   0.000000000000000
   0.000000000000000
   0.000000000000000
   0.000000000000000
   0.000000000000000
   0.000000000000000
   0.000000000000000
   0.000000000000000
   0.000000000000000
   0.000000000000000
   0.000000000000000
   0.000000000000000
   0.000000000000000
   0.000000000000000
   0.000000000000000
   0.000000000000000
   0.000000000000000
   0.000000000000000
   0.000000000000000
   0.000000000000000
   0.000000000000000
   0.000000000000000
   0.000000000000000
   0.000000000000000
   0.000000000000000
   0.000000000000000
   0.000000000000000
   0.000000000000000
   0.000000000000000
   0.000000000000000
   0.000000000000000
   0.000000000000000
   0.000000000000000
   0.000000000000000
   0.000000000000000
   0.000000000000000
   0.000000000000000
   0.000000000000000
   0.000000000000000
   0.000000000000000
   0.000000000000000
   0.000000000000000
   0.000000000000000
   0.000000000000000
   0.000000000000000
   0.000000000000000
   0.000000000000000
   0.000000000000000
   0.000000000000000
   0.000000000000000
   0.000000000000000
   0.000000000000000
   0.000000000000000
   0.000000000000000
   0.000000000000000
   0.000000000000000
   0.000000000000000
   0.000000000000000
   0.000000000000000
   0.000000000000000
   0.000000000000000
   0.000000000000000
   0.000000000000000
   0.000000000000000
   0.000000000000000
   0.000000000000000
   0.000000000000000
   0.000000000000000
   0.000000000000000
   0.000000000000000
   0.000000000000000
   0.000000000000000
   0.000000000000000
   0.000000000000000
   0.000000000000000
   0.000000000000000
   0.000000000000000
   0.000000000000000
   0.000000000000000
   0.000000000000000
   0.000000000000000
   0.000000000000000
   0.000000000000000
   0.000000000000000
   0.000000000000000
   0.000000000000000
   0.000000000000000
   0.000000000000000
   0.000000000000000
   0.000000000000000
   0.000000000000000
   0.000000000000000
   0.000000000000000
   0.000000000000000
   0.000000000000000
   0.000000000000000
   0.000000000000000
   0.000000000000000
   0.000000000000000
   0.000000000000000
   0.000000000000000
   0.000000000000000
   0.000000000000000
   0.000000000000000
   0.000000000000000
   0.000000000000000
   0.000000000000000
   0.000000000000000
   0.000000000000000
   0.000000000000000
   0.000000000000000
   0.000000000000000
   0.000000000000000
   0.000000000000000
   0.000000000000000
   0.000000000000000
   0.000000000000000
   0.000000000000000
   0.000000000000000
   0.000000000000000
   0.000000000000000
   0.000000000000000
   0.000000000000000
   0.000000000000000
   0.000000000000000
   0.000000000000000
   0.000000000000000
   0.000000000000000
   0.000000000000000
   0.000000000000000
   0.000000000000000
   0.000000000000000
   0.000000000000000
   0.000000000000000
   0.000000000000000
   0.000000000000000
   0.000000000000000
   0.000000000000000
   0.000000000000000
   0.000000000000000
   0.000000000000000
   0.000000000000000
   0.000000000000000
   0.000000000000000
   0.000000000000000
   0.000000000000000
   0.000000000000000
   0.000000000000000
   0.000000000000000
   0.000000000000000
   0.000000000000000
   0.000000000000000
   0.000000000000000
   0.000000000000000
   0.000000000000000
   0.000000000000000
   0.000000000000000
   0.000000000000000
   0.000000000000000
   0.000000000000000
   0.000000000000000
   0.000000000000000
   0.000000000000000
   0.000000000000000
   0.000000000000000
   0.000000000000000
   0.000000000000000
   0.000000000000000
   0.000000000000000
   0.000000000000000
   0.000000000000000
   0.000000000000000
   0.000000000000000
   0.000000000000000
   0.000000000000000
   0.000000000000000
   0.000000000000000
   0.000000000000000
   0.000000000000000
   0.000000000000000
   0.000000000000000
   0.000000000000000
   0.000000000000000
   0.000000000000000
   0.000000000000000
   0.000000000000000
   0.000000000000000
   0.000000000000000
   0.000000000000000
   0.000000000000000
   0.000000000000000
   0.000000000000000
   0.000000000000000
   0.000000000000000
   0.000000000000000
   0.000000000000000
   0.000000000000000
   0.000000000000000
   0.000000000000000
   0.000000000000000
   0.000000000000000
   0.000000000000000
   0.000000000000000
   0.000000000000000
   0.000000000000000
   0.000000000000000
   0.000000000000000
   0.000000000000000
   0.000000000000000
   0.000000000000000
   0.000000000000000
   0.000000000000000
   0.000000000000000
   0.000000000000000
   0.000000000000000
   0.000000000000000
   0.000000000000000
   0.000000000000000