:RELAXSTEP: 54
:E(Ha): -5.500464048848406E+03
:R(Bohr):
   0.061901938154677    0.034093340825677   47.516989198755212
   0.164209920262059    2.606109226495624   28.363992651574847
   4.768547747010634    2.934723183499662   28.365361985270823
   9.704693650258921    2.934680268371647   28.365559755728654
   2.299822764054527    6.790580000770722   28.366052071320148
   7.233734314961837    6.798878892652651   28.366152851153043
  12.170295085437486    6.789773830053788   28.363562750090310
  14.304166745101959    8.176981978941321   32.293970877624723
   4.763154699151633    8.180286977784776   32.286777356882133
   9.698469998846662    8.180405412305680   32.286785011886764
   2.301634234283716    4.000737719412260   32.289667895597766
   7.234194131083015    3.999055117683994   32.294728617764548
  12.165775069322219    4.000647539796010   32.289624761239914
   2.304218938746738    1.542497144230541   36.216177983064902
   7.233779445313242    1.232688397705886   36.215298932045833
  12.164817879278965    1.547816957734288   36.215297026516353
   0.162570643390719    5.413814531013085   36.220459495520394
   4.766536366673172    5.725065031319072   36.221601867501022
   9.707290428282437    5.724778245924512   36.221506525394922
  14.307233761917210    2.631073358783817   40.147191149255470
   4.765060334152699    2.628065432435358   40.142883764703981
   9.698449012484133    2.628125997104520   40.142498139852570
   2.299368355374428    7.114435219192536   40.144221272591260
   7.233793128101007    7.111249972897432   40.146989971342869
  12.165498320654534    7.108158601073695   40.140223724350804
  14.303715175864211    0.166889939790268   44.082995418882682
   4.766393534391765    0.165931464808190   44.072374828323056
   9.695165713945137    0.165918350836532   44.072941761475306
   2.301173060985236    4.344617858351214   44.066304368321475
   7.233929386869055    4.344964436772018   44.068539540984304
  12.162124796747532    4.345513108871028   44.068124826784278
   0.165899839211699    0.135506338813854   49.722395512722230
:ISFD: 0
:ISRESET: 0
:STEP: 11
:DX:
   0.005796024665565
   0.001736953130655
   0.045911673640639
  -0.001777536375453
   0.000002728264310
   0.000898588695492
  -0.000630867193973
  -0.000091700947949
   0.001079048847892
  -0.000994270324679
   0.000102084346797
   0.001016830090137
  -0.000365261028144
  -0.000286886938020
  -0.000102586600956
  -0.000696252732096
   0.000105804319420
   0.000917114594333
  -0.000567464574125
   0.000474670166486
   0.002257542485278
   0.007903039232962
   0.000138291865571
   0.001296242456583
   0.000699235717106
   0.000199900129310
   0.001291579092651
   0.001942576361909
   0.000069652796364
   0.000982122350678
   0.000225318241556
   0.000078043848901
   0.001563747682667
  -0.000907344478178
   0.000075352435430
   0.001145827346114
   0.000064203837375
   0.000137072573374
   0.000857873930507
  -0.002657473234821
   0.001052616582211
   0.006050496362384
  -0.001877371824662
  -0.000142143671709
   0.000927358892973
  -0.002773099347291
  -0.001737239257359
  -0.005729383621699
  -0.000340030834736
  -0.000345226821861
   0.002289660756588
  -0.001224590870414
   0.000120169622069
   0.001685741208640
  -0.000826250677662
  -0.000133473180014
   0.000857031853350
   0.049198077324730
   0.001970134376308
  -0.000200733348471
  -0.007859747590743
   0.000212399968027
  -0.000306969914945
  -0.019501914704819
  -0.000099383631018
  -0.000601251309632
  -0.005401765664943
   0.004144643314004
  -0.000834309523825
  -0.002084944247139
  -0.000063987083665
  -0.000393817346882
  -0.007036878559399
  -0.007668400556171
  -0.000854774534744
   0.000184380806916
   0.000509423764933
  -0.008653255095020
  -0.001264265646628
  -0.000014571266487
  -0.001882534511587
  -0.000606859762758
   0.000131228393052
  -0.001709726689619
  -0.002255273224684
  -0.000603082579563
  -0.004107830971428
  -0.001820726095996
   0.000284716238054
  -0.001309561965940
  -0.001952127063486
   0.001886161043219
   0.003036607552282
  -0.000590540131288
  -0.002245951244679
  -0.047378352404444
   0.002426740533722
   0.000062416447035
   0.003630462444306
  -0.002062130736328
   0.000005510536915
   0.000368835072567
  -0.001471102343383
  -0.000064267726784
   0.000456864969511
  -0.001643323607055
   0.000077940941383
   0.000420409579615
  -0.001302950720128
  -0.000174251989656
  -0.000188296002964
  -0.001483089501745
   0.000061315539157
   0.000372290063464
  -0.001389649583865
   0.000278720797033
   0.001124248008303
   0.003102111390328
   0.000061442997941
   0.000505760595111
  -0.000679524871541
   0.000112002205981
   0.000550887902016
   0.000051544806293
   0.000034181844139
   0.000354016595210
  -0.000957175478086
   0.000025600558982
   0.000695452621486
  -0.001578840083729
   0.000054376915877
   0.000453398529586
  -0.001010034725534
   0.000119992141784
   0.000264837417888
  -0.002499228651552
   0.000590740177946
   0.002854264483531
  -0.002132899243883
  -0.000087050531707
   0.000368039776319
  -0.002510706944060
  -0.000945243051142
  -0.002539180912812
  -0.001412292090420
  -0.000175800323315
   0.001066169674715
  -0.001773088854498
   0.000089100727338
   0.000786822398048
  -0.001583919429894
  -0.000111843060955
   0.000358910893063
   0.056233292068056
   0.000853534854181
  -0.000240930228671
  -0.005144435387079
   0.000205720148165
  -0.000110960076618
  -0.010213147674833
  -0.000145423341360
  -0.000326902911297
  -0.003889199241722
   0.002248532832720
  -0.000432357659328
  -0.002350063554545
  -0.000120624123292
  -0.000185887125546
  -0.004702474987559
  -0.004035865077485
  -0.000441361362746
  -0.000928450894804
   0.000184709007496
  -0.002363262022911
  -0.001744779744330
  -0.000025498219855
  -0.000860482804242
  -0.001407461741209
   0.000117627919938
  -0.000755608426878
  -0.002337613444631
  -0.000287622795250
  -0.002046250513402
  -0.002090403691344
   0.000166360365159
  -0.000443273563064
  -0.002156301440646
   0.000911919227374
   0.001490878808816
   0.000640599870006
  -0.000088255945743
  -0.005187796223062
  -0.001127660606387
  -0.000905559167217
  -0.020519587788932
  -0.000705676498269
   0.000015648869179
  -0.000168381133580
  -0.000957323770165
   0.000001484855265
  -0.000207432100773
  -0.000880949832116
   0.000009476168161
  -0.000185492156067
  -0.000982936793974
   0.000052895108962
   0.000018266505229
  -0.000936049316943
  -0.000000862651033
  -0.000159693451145
  -0.000929778507841
  -0.000059819235342
  -0.000420208458742
  -0.002632195029845
  -0.000035923659123
  -0.000227554916542
  -0.001165144011382
  -0.000028312028354
  -0.000183717551785
  -0.001371588454052
  -0.000006965687126
  -0.000156148188708
  -0.001095639797803
  -0.000032188346625
  -0.000243383948636
  -0.000876764989753
  -0.000000850872085
  -0.000176601188954
  -0.001044847391167
   0.000037729683891
  -0.000155047518369
  -0.000457890460428
  -0.000197558266463
  -0.001600823479663
  -0.000717138327443
   0.000016713951547
  -0.000172867240366
  -0.000357096476382
   0.000409025526199
   0.002134485569144
  -0.001176299093970
   0.000083911745723
  -0.000470306069111
  -0.000844222868054
   0.000008170316312
  -0.000282088712446
  -0.000953887870269
  -0.000020337328115
  -0.000120603009016
   0.018571843831099
  -0.000693695753593
  -0.000100466323886
   0.000804478287811
   0.000065579435228
   0.000121323858835
   0.004692602995593
  -0.000128306362249
   0.000110095501924
   0.000208728568754
  -0.000978817574419
   0.000224843875770
  -0.000854699946070
  -0.000052558276035
   0.000103626967217
   0.000759207157872
   0.001788121636284
   0.000270125394820
  -0.001195144459151
  -0.000120622697913
   0.002831760498488
  -0.000788755173740
  -0.000021623667851
   0.000361162189165
  -0.000912276735381
   0.000042725523818
   0.000294617076683
  -0.000561379264136
   0.000226960925326
   0.000877815489090
  -0.000691496141231
  -0.000037809179413
   0.000312218794264
  -0.000639470597944
  -0.000576450554646
  -0.001152687591791
  -0.000180548427234
   0.001139817561705
   0.019042749107882
  -0.000091596831054
  -0.000373991532834
  -0.007390414469221
  -0.001062260105696
   0.000008504744431
   0.000155964795329
  -0.001053593052241
  -0.000009286481720
   0.000156307481163
  -0.001044364100187
   0.000035799765430
   0.000161920921425
  -0.001027996298457
  -0.000014465171573
   0.000124518793442
  -0.001043332808348
   0.000008656154544
   0.000163386008371
  -0.001007829208971
   0.000030161420623
   0.000204828765192
  -0.000918091526245
   0.000007274320426
   0.000008803620517
  -0.000975687936885
   0.000010011967500
   0.000030277143559
  -0.000918684230333
   0.000009373238193
   0.000007819016624
  -0.001010969390928
  -0.000012707806444
   0.000028510454726
  -0.001033604234424
   0.000013853060000
   0.000009112048801
  -0.000995283898453
   0.000034276079764
   0.000000812581277
  -0.000962000126321
  -0.000002813889511
  -0.000399098445833
  -0.001055733550591
  -0.000009988198000
  -0.000090685477950
  -0.000905185129779
   0.000046860196992
   0.000609746918485
  -0.001180237979694
   0.000023222484865
  -0.000125822660934
  -0.001056637092714
   0.000032272025034
  -0.000083376841587
  -0.001093418591108
  -0.000036335402300
  -0.000077261401820
   0.028442419245126
  -0.000245350318550
  -0.000197857249475
  -0.000776175898474
   0.000100898769229
  -0.000020340859393
   0.000516297090172
  -0.000105142362012
  -0.000048637053112
  -0.000832889971606
  -0.000195377013807
  -0.000064796983111
  -0.001167090254952
  -0.000061433687269
  -0.000038963745219
  -0.000700755342717
   0.000311337744218
  -0.000008839332487
  -0.001159789026401
  -0.000008232150649
   0.000761791705386
  -0.001050334149681
  -0.000016259091946
   0.000180489501503
  -0.001010395900483
   0.000047392911004
   0.000143572578956
  -0.001030725424891
   0.000092995611960
   0.000281285442817
  -0.001043532493433
   0.000018541963839
   0.000187384127948
  -0.000984130385607
  -0.000148169723523
  -0.000135263733597
  -0.000766391394623
   0.000408120372083
   0.005464826348238
  -0.000108430275325
   0.000164965629539
   0.003435601153363
   0.000437468965729
  -0.000005512147524
  -0.000062528444317
   0.000368160461972
   0.000011244736684
  -0.000075668298830
   0.000393263043991
  -0.000015693719315
  -0.000071009791046
   0.000338100961416
   0.000024777022749
   0.000015676942361
   0.000363171481617
  -0.000013274216170
  -0.000067157578918
   0.000349155005003
  -0.000046575607218
  -0.000167230986175
  -0.000271150533131
  -0.000007172809742
  -0.000058078926322
   0.000245106995612
  -0.000019467488579
  -0.000079096945456
   0.000136138825917
  -0.000003898593507
  -0.000037537158747
   0.000284842605915
   0.000004764976037
  -0.000102918518628
   0.000371952082933
  -0.000011638124348
  -0.000054619658570
   0.000286815450622
  -0.000034859060340
  -0.000016988381070
   0.000523836965334
  -0.000102211373211
  -0.000319793739912
   0.000480828864442
   0.000018224520973
  -0.000018559593634
   0.000504075894645
   0.000140128434015
   0.000188550914217
   0.000387290250825
   0.000027352753587
  -0.000125335403133
   0.000416892413534
  -0.000019290597753
  -0.000096822069011
   0.000396840003068
   0.000029576539654
  -0.000024294137603
  -0.012558497747733
  -0.000089072473788
   0.000086125073935
   0.000915643331699
  -0.000053341371153
   0.000017630077608
   0.001331826611628
   0.000058825774811
   0.000071435472641
   0.000737075281815
  -0.000363974226811
   0.000059649451835
   0.000562212746222
   0.000034200687437
   0.000039583705302
   0.000806033442812
   0.000622051712818
   0.000057795369500
   0.000294382161917
  -0.000020657014109
   0.000003897396319
   0.000397143726200
   0.000007482868045
   0.000130577884249
   0.000341925533080
  -0.000034655481632
   0.000119571669480
   0.000491913713081
   0.000032760186027
   0.000317258481445
   0.000456450896081
  -0.000029307963120
   0.000045966893701
   0.000465682502806
  -0.000097133945739
  -0.000101652114935
  -0.000146151663728
  -0.000208619628317
  -0.003110028739663
   0.000070785199040
  -0.000045650245708
  -0.000771437785836
  -0.000240181551146
   0.000001778545162
   0.000009596290678
  -0.000239625829431
  -0.000003724770521
   0.000010132877538
  -0.000238657928433
   0.000006029431498
   0.000011606563223
  -0.000235039859024
  -0.000001487599874
   0.000005524614025
  -0.000240125530936
   0.000002472160727
   0.000012069137824
  -0.000231403313181
   0.000005405349853
   0.000017314843994
  -0.000222669472020
  -0.000000979492702
   0.000002806133203
  -0.000224925115657
   0.000001406115890
   0.000007630015709
  -0.000217608427437
   0.000001372079481
   0.000003807133709
  -0.000231987040598
  -0.000001393810431
   0.000005500771294
  -0.000235207213970
   0.000001989113995
   0.000005827020317
  -0.000229542670331
   0.000008167578766
   0.000001293126353
  -0.000209356409828
  -0.000005292539892
  -0.000079885980853
  -0.000234183106320
  -0.000001658855875
  -0.000002929830174
  -0.000196989200280
   0.000019397942923
   0.000164326822379
  -0.000265290846034
   0.000004999789460
  -0.000010138883106
  -0.000236855145491
   0.000005891390971
   0.000000463818672
  -0.000242627332815
  -0.000008020274186
   0.000004646571014
   0.006192161633654
  -0.000062745245512
  -0.000022723935125
  -0.000151306250892
   0.000017662779693
   0.000005183452771
   0.000146605231327
  -0.000022283536629
  -0.000002021694009
  -0.000171973878949
  -0.000061951760651
   0.000001009808820
  -0.000257908420664
  -0.000011055882155
   0.000001321355469
  -0.000129621605097
   0.000105944551120
   0.000012640097076
  -0.000243130050226
  -0.000004069320083
   0.000139438636403
  -0.000231210114483
  -0.000004665601880
   0.000010732264137
  -0.000235076818754
   0.000009416046792
   0.000003919185147
  -0.000222379622115
   0.000023815052139
   0.000033559056661
  -0.000234588195579
   0.000003039736656
   0.000018179358939
  -0.000226642713573
  -0.000039352854218
  -0.000079535716004
  -0.000133438400751
   0.000055544125189
   0.000480144869776
   0.000002569889649
   0.000002584350205
   0.000061601801789
  -0.000054753469531
  -0.000001440123253
  -0.000037787423874
  -0.000092528542497
   0.000000899695063
  -0.000044644114691
  -0.000078130362921
  -0.000001372762913
  -0.000039663989195
  -0.000102464403863
   0.000011028170363
  -0.000000710955387
  -0.000094773034086
  -0.000004945295125
  -0.000036464986227
  -0.000093545242697
  -0.000019736666735
  -0.000085685286429
  -0.000429677357179
  -0.000004714278521
  -0.000041693246494
  -0.000139470565741
  -0.000009835778620
  -0.000046684839340
  -0.000191351917982
  -0.000001389097770
  -0.000028479417601
  -0.000128994883705
  -0.000001370381299
  -0.000062451295449
  -0.000082497721222
  -0.000004240755366
  -0.000037410708345
  -0.000126347160100
  -0.000010460479538
  -0.000020265792493
   0.000024213026145
  -0.000062559661539
  -0.000282656539163
  -0.000024819494838
   0.000006199312427
  -0.000020080450746
   0.000029736159222
   0.000098717919342
   0.000306927895267
  -0.000119782746601
   0.000021255589086
  -0.000087565080968
  -0.000062224698778
  -0.000003292145599
  -0.000060492233445
  -0.000081792908546
   0.000005230015122
  -0.000014884597022
   0.000738838591289
  -0.000122891053358
   0.000015770982252
   0.000308687683635
  -0.000006749646525
   0.000019675961447
   0.000918557195545
   0.000002091277511
   0.000041132975902
   0.000182939372396
  -0.000274639100642
   0.000036252171689
  -0.000009536950526
   0.000004248762516
   0.000026970018006
   0.000267017240885
   0.000467829835793
   0.000048714574199
  -0.000148266486741
  -0.000017810443630
   0.000200457648553
  -0.000065274296872
  -0.000001829105763
   0.000096232630746
  -0.000099361931802
  -0.000006343977974
   0.000077439739449
  -0.000006765584237
   0.000045583873459
   0.000226875075704
  -0.000036662793226
  -0.000013539159634
   0.000056914794996
  -0.000024503582313
  -0.000104551808376
  -0.000150702905785
  -0.000179033022761
   0.000008042921289
  -0.000116642407342
   0.000389347176402
  -0.000011975979622
   0.001785573788894
  -0.001203429670807
  -0.000037450220117
  -0.000362559479743
  -0.001703903812047
  -0.000013215975732
  -0.000446881612920
  -0.001502662143993
  -0.000041055080839
  -0.000381017579116
  -0.001904316269571
   0.000159399152695
   0.000217307610594
  -0.001746785937006
  -0.000094809548979
  -0.000327521619639
  -0.001774899052505
  -0.000338233805634
  -0.001101913098871
  -0.006964405344632
  -0.000076884964940
  -0.000722115624491
  -0.002453236225840
  -0.000160886090498
  -0.000801665613238
  -0.003290906986491
  -0.000027370120314
  -0.000542408683110
  -0.002306291351442
  -0.000013685146685
  -0.001029858316350
  -0.001589296685067
  -0.000082477519744
  -0.000676883727664
  -0.002306458582842
  -0.000197327424056
  -0.000393526204853
   0.000194848877409
  -0.001067393546214
  -0.004625829734792
  -0.000695458950064
   0.000124132263515
  -0.000502737039000
   0.000277714989673
   0.001622181998729
   0.004519401525258
  -0.002105519736157
   0.000350942477922
  -0.001610808878453
  -0.001260998280076
  -0.000085467785995
  -0.001184958888800
  -0.001574046326759
   0.000099886455187
  -0.000464048083522
   0.019099124381150
  -0.001988532272561
   0.000235744135779
   0.004667213765706
  -0.000187868400916
   0.000199114932791
   0.014356747642575
   0.000055112136061
   0.000567980717655
   0.002756248683450
  -0.004613929239179
   0.000496781958716
  -0.000352730345784
   0.000132926663793
   0.000302363294416
   0.004132960404188
   0.007932695431137
   0.000695352658255
  -0.002503571818615
  -0.000298962725937
   0.002774062548831
  -0.001348645398740
  -0.000022533801380
   0.001576986197989
  -0.001856075578647
  -0.000119573504271
   0.001288233114998
  -0.000370520444666
   0.000734430938172
   0.003601213057472
  -0.000859743675565
  -0.000225090107171
   0.001038109946187
  -0.000582516143655
  -0.001698224479450
  -0.002411770163107
  -0.003617787159552
   0.000191240222953
  -0.001711721140062
  -0.000277819294944
   0.000028476184583
  -0.001032334281398
   0.001003184918672
   0.000028070214555
   0.000294385798508
   0.001428810759562
   0.000007653824012
   0.000364179051310
   0.001260320216819
   0.000031535373432
   0.000307462387656
   0.001598248611516
  -0.000133009472166
  -0.000194119568683
   0.001463073684313
   0.000077634085280
   0.000263424873932
   0.001487625968405
   0.000279152192881
   0.000915325883145
   0.005854439726644
   0.000064469881151
   0.000614802033773
   0.002057787518376
   0.000131970214531
   0.000674919000623
   0.002757659800960
   0.000022359299257
   0.000463647773579
   0.001931464238813
   0.000011102394325
   0.000867044746215
   0.001333545658972
   0.000065796317442
   0.000574706579194
   0.001929539468536
   0.000157762519450
   0.000342368169349
  -0.000164523418186
   0.000878859798500
   0.003921341072733
   0.000591623708110
  -0.000103735378091
   0.000452580274867
  -0.000220791806937
  -0.001345444574538
  -0.003801112063236
   0.001768427528118
  -0.000290517532396
   0.001383008507460
   0.001059964683296
   0.000069282704126
   0.001018914535017
   0.001328012808955
  -0.000079739588873
   0.000418804917011
  -0.015999426237007
   0.001666434264407
  -0.000199830394500
  -0.003902774859217
   0.000145871392637
  -0.000172652519353
  -0.012065071797329
  -0.000031377409623
  -0.000472967737565
  -0.002292246294996
   0.003795652917898
  -0.000431729173499
   0.000316079567686
  -0.000105251804939
  -0.000257185931027
  -0.003453973032325
  -0.006561954017459
  -0.000594629855414
   0.002116605343026
   0.000249357517039
  -0.002398719496668
   0.001129390324412
   0.000020047440098
  -0.001384512722858
   0.001553467165582
   0.000091758409466
  -0.001141490824523
   0.000306443335695
  -0.000615749733995
  -0.003064634767377
   0.000726318301218
   0.000183569881304
  -0.000943752769608
   0.000501507388032
   0.001416047966892
   0.001976890782927
   0.002873086015200
  -0.000156085281123
   0.001235865718307
   0.000082266241018
  -0.000002240676622
   0.000406254058639
  -0.000327190185159
  -0.000013359183221
  -0.000096263263281
  -0.000450816528505
  -0.000006776999105
  -0.000118907168837
  -0.000398554458297
  -0.000013080981954
  -0.000103840453928
  -0.000502493711724
   0.000041874450348
   0.000052491748914
  -0.000463407804665
  -0.000027616925315
  -0.000088916995537
  -0.000471055780187
  -0.000093524711270
  -0.000288817790551
  -0.001782660695435
  -0.000020285068034
  -0.000174211185566
  -0.000636239372970
  -0.000044464474755
  -0.000201289784755
  -0.000853207913032
  -0.000007260368911
  -0.000128531296404
  -0.000603840954470
  -0.000004988008908
  -0.000259523982741
  -0.000414279429348
  -0.000024878732564
  -0.000166050220407
  -0.000605704978931
  -0.000058412357035
  -0.000087549650033
   0.000043795903310
  -0.000293271307730
  -0.001157922210936
  -0.000177841206350
   0.000033324224815
  -0.000106987464221
   0.000078700872146
   0.000438724027118
   0.001155085933419
  -0.000548131185042
   0.000093045382480
  -0.000388414734601
  -0.000331353845876
  -0.000026301756281
  -0.000287591898569
  -0.000406844658981
   0.000030180217764
  -0.000098076585715
   0.004986527889924
  -0.000515450741081
   0.000050074711652
   0.001209496515189
  -0.000060636923594
   0.000039501155683
   0.003694669318087
   0.000031486070321
   0.000141248531513
   0.000723979125230
  -0.001281072151685
   0.000107043388887
  -0.000077689046110
   0.000039678293489
   0.000067005058725
   0.001072861313878
   0.002166832577981
   0.000160988307911
  -0.000600738015486
  -0.000076738268830
   0.000613603275347
  -0.000358093551767
  -0.000005207927828
   0.000358698785313
  -0.000496649583212
  -0.000038910271042
   0.000282933151077
  -0.000103784716726
   0.000193445557454
   0.000908772039338
  -0.000225459086296
  -0.000065259480477
   0.000211145430093
  -0.000147016445311
  -0.000454883578359
  -0.000680204883885
  -0.000909244024896
   0.000066030092810
  -0.000121746006521
  -0.000035722121471
   0.000000689745471
  -0.000140704751843
   0.000123528286385
   0.000002657235054
   0.000064848874924
   0.000174842064110
   0.000001426988146
   0.000075078757668
   0.000153392126279
   0.000003795196905
   0.000068849661325
   0.000193022377956
  -0.000017884158040
   0.000006602925399
   0.000178407945300
   0.000007371079957
   0.000061917892712
   0.000180178236505
   0.000032746400410
   0.000139994069247
   0.000704403908903
   0.000007196278942
   0.000058952082568
   0.000249318209417
   0.000015817758042
   0.000065784933533
   0.000332480530524
   0.000001999561796
   0.000040090230790
   0.000234278185487
   0.000002328820933
   0.000090035705412
   0.000159928668177
   0.000008472493558
   0.000052527004947
   0.000232842666255
   0.000019388069216
   0.000025511112867
  -0.000015636009144
   0.000105619249034
   0.000438903369229
   0.000073236318467
  -0.000013226297028
   0.000015990823776
  -0.000031243829495
  -0.000163482877559
  -0.000497550554087
   0.000216468651576
  -0.000039083084939
   0.000131341805961
   0.000131109938318
   0.000006318469080
   0.000083941218506
   0.000160220418865
  -0.000010802422225
   0.000011368856960
  -0.001923515527332
   0.000205247310466
  -0.000048239669276
  -0.000471551007450
   0.000018874530555
  -0.000042644394540
  -0.001462363389503
   0.000000029276226
  -0.000079828056990
  -0.000278075757230
   0.000465578873557
  -0.000071393613709
   0.000042550146564
  -0.000013663951794
  -0.000052936591700
  -0.000418566433927
  -0.000791145432535
  -0.000092228998525
   0.000254885886568
   0.000023998026008
  -0.000251703541117
   0.000143712048140
   0.000001068883518
  -0.000137369916189
   0.000186172758383
   0.000012290334852
  -0.000106596130365
   0.000044552255796
  -0.000074923472094
  -0.000351440460058
   0.000087958338730
   0.000022827019783
  -0.000072496230196
   0.000052538379713
   0.000174479329628
   0.000263538755100
   0.000326645729132
  -0.000016009234912
   0.000249854827672
   0.000000000000000
   0.000000000000000
   0.000000000000000
   0.000000000000000
   0.000000000000000
   0.000000000000000
   0.000000000000000
   0.000000000000000
   0.000000000000000
   0.000000000000000
   0.000000000000000
   0.000000000000000
   0.000000000000000
   0.000000000000000
   0.000000000000000
   0.000000000000000
   0.000000000000000
   0.000000000000000
   0.000000000000000
   0.000000000000000
   0.000000000000000
   0.000000000000000
   0.000000000000000
   0.000000000000000
   0.000000000000000
   0.000000000000000
   0.000000000000000
   0.000000000000000
   0.000000000000000
   0.000000000000000
   0.000000000000000
   0.000000000000000
   0.000000000000000
   0.000000000000000
   0.000000000000000
   0.000000000000000
   0.000000000000000
   0.000000000000000
   0.000000000000000
   0.000000000000000
   0.000000000000000
   0.000000000000000
   0.000000000000000
   0.000000000000000
   0.000000000000000
   0.000000000000000
   0.000000000000000
   0.000000000000000
   0.000000000000000
   0.000000000000000
   0.000000000000000
   0.000000000000000
   0.000000000000000
   0.000000000000000
   0.000000000000000
   0.000000000000000
   0.000000000000000
   0.000000000000000
   0.000000000000000
   0.000000000000000
   0.000000000000000
   0.000000000000000
   0.000000000000000
   0.000000000000000
   0.000000000000000
   0.000000000000000
   0.000000000000000
   0.000000000000000
   0.000000000000000
   0.000000000000000
   0.000000000000000
   0.000000000000000
   0.000000000000000
   0.000000000000000
   0.000000000000000
   0.000000000000000
   0.000000000000000
   0.000000000000000
   0.000000000000000
   0.000000000000000
   0.000000000000000
   0.000000000000000
   0.000000000000000
   0.000000000000000
   0.000000000000000
   0.000000000000000
   0.000000000000000
   0.000000000000000
   0.000000000000000
   0.000000000000000
   0.000000000000000
   0.000000000000000
   0.000000000000000
   0.000000000000000
   0.000000000000000
   0.000000000000000
   0.000000000000000
   0.000000000000000
   0.000000000000000
   0.000000000000000
   0.000000000000000
   0.000000000000000
   0.000000000000000
   0.000000000000000
   0.000000000000000
   0.000000000000000
   0.000000000000000
   0.000000000000000
   0.000000000000000
   0.000000000000000
   0.000000000000000
   0.000000000000000
   0.000000000000000
   0.000000000000000
   0.000000000000000
   0.000000000000000
   0.000000000000000
   0.000000000000000
   0.000000000000000
   0.000000000000000
   0.000000000000000
   0.000000000000000
   0.000000000000000
   0.000000000000000
   0.000000000000000
   0.000000000000000
   0.000000000000000
   0.000000000000000
   0.000000000000000
   0.000000000000000
   0.000000000000000
   0.000000000000000
   0.000000000000000
   0.000000000000000
   0.000000000000000
   0.000000000000000
   0.000000000000000
   0.000000000000000
   0.000000000000000
   0.000000000000000
   0.000000000000000
   0.000000000000000
   0.000000000000000
   0.000000000000000
   0.000000000000000
   0.000000000000000
   0.000000000000000
   0.000000000000000
   0.000000000000000
   0.000000000000000
   0.000000000000000
   0.000000000000000
   0.000000000000000
   0.000000000000000
   0.000000000000000
   0.000000000000000
   0.000000000000000
   0.000000000000000
   0.000000000000000
   0.000000000000000
   0.000000000000000
   0.000000000000000
   0.000000000000000
   0.000000000000000
   0.000000000000000
   0.000000000000000
   0.000000000000000
   0.000000000000000
   0.000000000000000
   0.000000000000000
   0.000000000000000
   0.000000000000000
   0.000000000000000
   0.000000000000000
   0.000000000000000
   0.000000000000000
   0.000000000000000
   0.000000000000000
   0.000000000000000
   0.000000000000000
   0.000000000000000
   0.000000000000000
   0.000000000000000
   0.000000000000000
   0.000000000000000
   0.000000000000000
   0.000000000000000
   0.000000000000000
   0.000000000000000
   0.000000000000000
   0.000000000000000
   0.000000000000000
   0.000000000000000
   0.000000000000000
   0.000000000000000
   0.000000000000000
   0.000000000000000
   0.000000000000000
   0.000000000000000
   0.000000000000000
   0.000000000000000
   0.000000000000000
   0.000000000000000
   0.000000000000000
   0.000000000000000
   0.000000000000000
   0.000000000000000
   0.000000000000000
   0.000000000000000
   0.000000000000000
   0.000000000000000
   0.000000000000000
   0.000000000000000
   0.000000000000000
   0.000000000000000
   0.000000000000000
   0.000000000000000
   0.000000000000000
   0.000000000000000
   0.000000000000000
   0.000000000000000
   0.000000000000000
   0.000000000000000
   0.000000000000000
   0.000000000000000
   0.000000000000000
   0.000000000000000
   0.000000000000000
   0.000000000000000
   0.000000000000000
   0.000000000000000
   0.000000000000000
   0.000000000000000
   0.000000000000000
   0.000000000000000
   0.000000000000000
   0.000000000000000
   0.000000000000000
   0.000000000000000
   0.000000000000000
   0.000000000000000
   0.000000000000000
   0.000000000000000
   0.000000000000000
   0.000000000000000
   0.000000000000000
   0.000000000000000
   0.000000000000000
   0.000000000000000
   0.000000000000000
   0.000000000000000
   0.000000000000000
   0.000000000000000
   0.000000000000000
   0.000000000000000
   0.000000000000000
   0.000000000000000
   0.000000000000000
   0.000000000000000
   0.000000000000000
   0.000000000000000
   0.000000000000000
   0.000000000000000
   0.000000000000000
   0.000000000000000
   0.000000000000000
   0.000000000000000
   0.000000000000000
   0.000000000000000
   0.000000000000000
   0.000000000000000
   0.000000000000000