:RELAXSTEP: 53
:E(Ha): -3.901717248245169E+03
:R(Bohr):
  15.587115288964197    0.107570295953280   49.321440226960007
  15.538888579690255    0.170909867477813   51.546892656144493
   0.015115142996119    2.976281639610973   28.092327648641142
   5.243242381880957    2.962009247841644   28.045539224363928
  10.499877300819414    2.960748405524254   28.039259672281940
   2.634497178183566    7.502029431667886   28.078034413467055
   7.870986721512060    7.503874564007199   28.025310667083673
  13.110018336394525    7.501553134330971   28.074190593031300
   0.013319000431079    9.027101246698674   32.528675903715104
   5.246302171684548    9.035673397180865   32.478201025867776
  10.493627423467984    9.038934673736776   32.470284793311798
   2.628376946584064    4.486965460790796   32.528768535947037
   7.870092068037997    4.500581985241014   32.426629657572320
  13.113514354779346    4.488825264535222   32.520005015930650
   2.614702078718075    1.504333972660001   36.915800458220360
   7.866149365315734    1.553415179702536   36.795718372824481
  13.120400077400658    1.509039016898540   36.904031750271791
   0.012687521064612    6.038226813157940   36.932336899514404
   5.239154038648817    6.072927451227639   36.827803370512726
  10.492138747759739    6.075195263573998   36.814686727396023
   0.007819545997675    3.043042739460331   41.367043213210508
   5.239993145095458    3.080937354226239   41.193005899143486
  10.488016624265882    3.081262640824443   41.181809096539396
   2.601143460178919    7.599185915551909   41.317861165463178
   7.862947444182341    7.621586368466060   41.138730501841813
  13.120314999463030    7.597212309768880   41.293030329610630
   0.007483695812061    9.063171035574696   45.876691438514200
   5.309383841848941    9.071578528692775   45.631655195061718
  10.415500275519358    9.070038309770089   45.618952385592991
   2.707801319967349    4.529847962968087   45.706727407909852
   7.864385744170049    4.537628588118415   45.619393029277298
  13.020335909405569    4.530948201505874   45.692176087431001
:ISFD: 0
:ISRESET: 0
:STEP: 17
:DX:
  -0.002630877843023
   0.003468210039725
   0.078616326442742
  -0.003398765507693
  -0.004043857895620
  -0.077966550890622
   0.000193133367406
  -0.000052130220781
  -0.000150168133604
   0.000184461307874
  -0.000059053224076
  -0.000218421253695
   0.000194852424396
  -0.000055506725736
  -0.000219244381999
   0.000180590714901
  -0.000048892519013
  -0.000176843111106
   0.000185983716927
  -0.000069665090983
  -0.000255728214452
   0.000210201645427
  -0.000044682001199
  -0.000183272053565
   0.000199877979008
  -0.000038788498150
  -0.000012738474823
   0.000184751698498
   0.000004437049897
  -0.000126777656263
   0.000188179129561
  -0.000004808754790
  -0.000122474780625
   0.000179886096260
  -0.000049284625430
  -0.000026043757892
   0.000178800107103
  -0.000004945554087
  -0.000228186250510
   0.000214089293367
  -0.000045557331370
  -0.000024707513447
   0.000183557065401
   0.000036287283314
   0.000209425080008
   0.000178715904084
   0.000098861889859
  -0.000056587856250
   0.000217119072493
   0.000034947450770
   0.000210745723571
   0.000202313539174
   0.000012608623711
   0.000316343972933
   0.000135161756367
   0.000120305268079
   0.000032589717534
   0.000255995574138
   0.000126689620015
   0.000060983826813
   0.000202021910808
   0.000079047859867
   0.000482263542018
   0.000128893711584
   0.000225486319295
   0.000106073665314
   0.000248145710817
   0.000227959410634
   0.000113023392721
   0.000215218021086
  -0.000028875578301
   0.000357532135283
   0.000180423057195
   0.000191915657629
   0.000004829857360
   0.000218188793907
   0.000001340555687
   0.000423226359231
   0.000328689525175
  -0.000098553627319
  -0.001482134691642
   0.000398706038988
  -0.000006530665271
   0.000007640391196
   0.000024331733538
  -0.000005743588227
  -0.000004704651595
   0.000391896637744
   0.000021010465677
   0.000251606126788
   0.000199126629014
  -0.000002070070996
  -0.000182547552249
   0.000026331188478
   0.000009838477191
   0.000244520990833
  -0.001336790182281
   0.001121301473341
   0.013773297811319
  -0.003409139507148
  -0.001373181892904
  -0.014646463088113
   0.000150141108027
  -0.000051687246582
  -0.000306923584215
   0.000146191686309
  -0.000057958189244
  -0.000364358782658
   0.000158121088640
  -0.000056055808316
  -0.000364177673621
   0.000145753462199
  -0.000046705039331
  -0.000328625157152
   0.000151231357893
  -0.000054534761071
  -0.000389654431544
   0.000161162573011
  -0.000044431317301
  -0.000331533171465
   0.000151023655285
  -0.000037470489978
  -0.000093798136938
   0.000138966628613
  -0.000003601750329
  -0.000206010769055
   0.000162075403599
  -0.000008572206360
  -0.000204127882419
   0.000138772393770
  -0.000049046273002
  -0.000130274826070
   0.000147002673017
  -0.000017207800995
  -0.000253494192357
   0.000165648981939
  -0.000046849179520
  -0.000128287656835
   0.000118727458223
   0.000004545429829
   0.000091555430402
   0.000147401036913
   0.000069232363135
  -0.000112808492624
   0.000187614201497
   0.000003825154550
   0.000091222731683
   0.000151556482865
  -0.000043298871709
   0.000221285498029
   0.000076976308148
   0.000081066231306
   0.000021445732443
   0.000235945530813
   0.000086351574598
   0.000040514910332
   0.000155564859024
   0.000077009435504
   0.000260500365677
   0.000118935992045
   0.000148868013666
  -0.000021379827729
   0.000184698911385
   0.000151065315408
  -0.000019317661376
   0.000190035084187
  -0.000016484430852
   0.000188982552281
   0.000148262506603
   0.000124684899160
  -0.000084502577458
   0.000143965147558
   0.000004422228078
   0.000233252316775
   0.000249092966375
   0.000079956384353
   0.003177746576064
   0.000225703274049
   0.000002128165756
  -0.000075993903472
   0.000105905964206
   0.000002065013048
  -0.000090013649015
   0.000209513425115
  -0.000014073882095
   0.000143805053277
   0.000160163068667
  -0.000013775965787
  -0.000225455317462
   0.000119776459451
  -0.000021586576356
   0.000133591803284
  -0.000508340468457
   0.000239253931508
  -0.002532482430858
  -0.002017764883425
  -0.000340096436661
   0.002174596595729
   0.000080788888145
  -0.000030666186905
  -0.000207541851491
   0.000082468226075
  -0.000035090378878
  -0.000237978813367
   0.000077193299788
  -0.000033586719027
  -0.000237391438358
   0.000083309153794
  -0.000028669140693
  -0.000219683715610
   0.000078996106469
  -0.000031311961239
  -0.000249591658520
   0.000079908848418
  -0.000027114843360
  -0.000220530456357
   0.000082919378920
  -0.000022269883024
  -0.000089121828275
   0.000081402853221
  -0.000004406322441
  -0.000160206091834
   0.000079135878599
  -0.000006667108929
  -0.000157332240612
   0.000081330277515
  -0.000028616310807
  -0.000118851542872
   0.000077197337416
  -0.000009604646102
  -0.000175877954682
   0.000081075600997
  -0.000028042594142
  -0.000116715989179
   0.000066912049998
   0.000001830899627
   0.000026324238839
   0.000076101672987
   0.000038022126010
  -0.000092507387606
   0.000098824096490
   0.000001043488513
   0.000025619193039
   0.000082404629709
  -0.000026054066985
   0.000102380457925
   0.000044456983687
   0.000043932672347
  -0.000011486431696
   0.000119458027054
   0.000046199035403
  -0.000001626872361
   0.000083340598668
   0.000031226745287
   0.000126165701715
   0.000059567321507
   0.000072537936189
  -0.000045440008329
   0.000100637458420
   0.000072061174347
  -0.000043704086217
   0.000090050028204
  -0.000002190120086
   0.000090623960830
   0.000077199014104
   0.000067078476132
  -0.000079335357704
   0.000088939080188
   0.000009341825743
   0.000113361120015
   0.000135956945489
   0.000066702662295
   0.002358511306596
   0.000089532151343
  -0.000000199425836
  -0.000036219551149
   0.000086339580117
   0.000000825316587
  -0.000043805586238
   0.000080907014046
  -0.000010990436858
   0.000097007390842
   0.000083687839516
  -0.000009593407317
  -0.000128542372785
   0.000096065010997
  -0.000014886300701
   0.000091383700578
  -0.004292662587265
   0.002256602768578
  -0.006871793610912
  -0.015723499239202
  -0.002958501071146
   0.004277889785826
   0.000631751768897
  -0.000249705512355
  -0.001936070254398
   0.000643022545195
  -0.000277358552700
  -0.002177350825143
   0.000608938139665
  -0.000268889589021
  -0.002188938341103
   0.000640131733192
  -0.000233477682612
  -0.002033088668071
   0.000632114227437
  -0.000250147549473
  -0.002277206643971
   0.000645398525824
  -0.000215073420528
  -0.002039555545579
   0.000657304504527
  -0.000174359337128
  -0.000858254649280
   0.000646952299138
  -0.000056880684332
  -0.001425079762704
   0.000638736741214
  -0.000054995112277
  -0.001386800418722
   0.000627702681747
  -0.000218931236516
  -0.001093577591043
   0.000616923970206
  -0.000077726707420
  -0.001533104707413
   0.000646677961019
  -0.000223551185015
  -0.001061774040444
   0.000514022401342
   0.000022511672560
   0.000319669032748
   0.000615954309943
   0.000294581559612
  -0.000644937770225
   0.000793202995144
   0.000011492005314
   0.000304553751263
   0.000635822774755
  -0.000206204783644
   0.000900026259195
   0.000350320226112
   0.000345277498283
  -0.000017549612970
   0.000959471106848
   0.000359499733434
   0.000065192887980
   0.000629948836945
   0.000173496498502
   0.001331496370859
   0.000471415346595
   0.000554447185397
  -0.000079097080310
   0.000812961289036
   0.000553691512349
  -0.000069557031914
   0.000654567298092
   0.000019503375303
   0.001063027014709
   0.000624831571841
   0.000547920398554
  -0.000348198896241
   0.000758403477823
   0.000105951720052
   0.001236172120244
   0.001083769049407
   0.000471749210893
   0.017624588335693
   0.000739377820620
  -0.000003590159137
  -0.000092347585053
   0.000669698644129
   0.000003604518161
  -0.000136795654697
   0.000673725223695
  -0.000074790362389
   0.000990401791690
   0.000675940697673
  -0.000072496796863
  -0.000797416546213
   0.000717073658395
  -0.000103649914448
   0.000955477886230
  -0.009841951173684
   0.004305610861308
   0.001707504609605
  -0.030916893745298
  -0.004459717303986
   0.003277879788918
   0.001310764122345
  -0.000517276591097
  -0.002601360480515
   0.001215889470493
  -0.000607212788442
  -0.003129685007732
   0.001358721322864
  -0.000589988827987
  -0.003083812687798
   0.001223522426895
  -0.000500679331636
  -0.002797145686003
   0.001260963700894
  -0.000533013799958
  -0.003302191827931
   0.001398557880188
  -0.000479751471725
  -0.002818175340256
   0.001315364151455
  -0.000531017298233
  -0.001167566650764
   0.001137549150283
  -0.000133521468419
  -0.002220866100096
   0.001380962864660
  -0.000188618033961
  -0.002223027001769
   0.001217102420823
  -0.000478117714518
  -0.001588596782341
   0.001229248754285
  -0.000145204252170
  -0.002498021933725
   0.001418303009958
  -0.000435422264493
  -0.001570655398496
   0.000991187337517
  -0.000047326430150
   0.000028332275207
   0.001216751026044
   0.000592064185961
  -0.001857676745729
   0.001670755765121
  -0.000050016186136
   0.000048439819182
   0.001357511964499
  -0.000254603263746
   0.001096907912697
   0.000806843917099
   0.000565749003781
  -0.000834094917998
   0.001827737579251
   0.000628519672663
  -0.000664325313132
   0.001377736401096
   0.000068453418428
   0.002145677646176
   0.000819681311447
   0.001082532098219
  -0.001113212452616
   0.001745146091663
   0.001084562860063
  -0.001086077241034
   0.000888751647642
   0.000127275593410
   0.001599748154916
   0.001247760634448
   0.001101372029708
  -0.001650491179042
   0.001967934818650
   0.000314019867460
   0.001946180419395
   0.002337858576861
   0.000716571117925
   0.025376316795644
   0.001170533978334
  -0.000110921662584
  -0.000724424617530
   0.001649244167817
  -0.000089772509362
  -0.000863920721045
   0.001132746153917
  -0.000103325894765
   0.001470815802605
   0.001333457668138
  -0.000140614896329
  -0.002248304520442
   0.001750256604284
  -0.000190608719246
   0.001345829381677
  -0.029775152308346
   0.007557179605896
   0.018308913801128
  -0.054909574050470
  -0.002722517627605
   0.010819387049018
   0.002668833757988
  -0.001409594837169
  -0.007699457672135
   0.003058686263532
  -0.001712363225673
  -0.009195702221348
   0.002084705767528
  -0.001582737263309
  -0.009046289569216
   0.002854580301387
  -0.001561258442051
  -0.008383343932568
   0.002610404363550
  -0.001642210238122
  -0.009540129312867
   0.002379218095962
  -0.001514884223043
  -0.008400777214518
   0.002779450172473
  -0.001694783812320
  -0.002161216696919
   0.002718057476091
  -0.000798677739994
  -0.005189209510263
   0.002193719144083
  -0.000774085926878
  -0.005003448031992
   0.002839596774450
  -0.001030004895267
  -0.003224169104669
   0.002482709356782
  -0.000317452637964
  -0.005502246443569
   0.002530681669569
  -0.000919810813460
  -0.003044401391321
   0.002666238022558
  -0.000253746498534
   0.001409062908408
   0.002438491871072
   0.001419537729620
  -0.003177789875124
   0.002811627273644
  -0.000226303084255
   0.001360729745137
   0.002767095438864
  -0.000443007234828
   0.003387194772387
   0.002405013864842
   0.001115165026059
  -0.001403036572938
   0.002955804061799
   0.001201609658118
  -0.000821391617137
   0.002679916651778
  -0.000822365948289
   0.007344904850633
   0.002416769573019
   0.002124475717427
  -0.001292467860324
   0.002948829713979
   0.002081173373136
  -0.001209971942828
   0.001708932482901
   0.000792439937040
   0.006558091810163
   0.002550699424709
   0.002897313740841
  -0.002332669068984
   0.004125377593216
   0.001125376943945
   0.007146615130559
   0.006101789726576
   0.000869869117208
   0.028914811407191
   0.002626105396585
  -0.000456826328264
  -0.001145220680712
   0.003284381949035
  -0.000360337648818
  -0.001413505098405
   0.002889140523430
  -0.000099644300350
   0.005026011674104
   0.002804211945149
  -0.000414425009061
  -0.005463715521159
   0.003303657702254
  -0.000427103114056
   0.004374436190297
  -0.023924060293126
   0.003194229162255
   0.017326120922469
   0.003133767576836
   0.002176709114998
   0.009950691125432
   0.000501539512784
  -0.001234698062980
  -0.002324703292910
   0.000462126364906
  -0.001200544570646
  -0.003512656289782
   0.000749338281450
  -0.001200958046367
  -0.003418807366725
   0.000341403773393
  -0.001014327652626
  -0.002853204553968
   0.000572410474029
  -0.001320903321948
  -0.003971562909861
   0.000718377859972
  -0.001040288858157
  -0.002754700906035
   0.000437017391653
  -0.001152802389610
  -0.001922009597138
   0.000252725614382
  -0.000445509488955
  -0.003856047176932
   0.001005013875455
  -0.000494705886686
  -0.003742035889616
   0.000239681101852
  -0.000983665164777
  -0.002596827547521
   0.000716626686383
  -0.000283710341164
  -0.004264184313207
   0.000734628191863
  -0.000987147162313
  -0.002642845976119
  -0.000162817798104
  -0.000264261365395
   0.000181720287046
   0.000603978200017
   0.000901601072831
  -0.003401352263488
   0.001171273546500
  -0.000299196762342
   0.000264859997564
   0.000499230210223
  -0.000310806517683
   0.001638546174810
  -0.000017545188697
   0.000745916343338
  -0.002022924139709
   0.001203611830277
   0.000825632471607
  -0.001885514611729
   0.000820193456058
  -0.000979885668308
   0.004970397787737
  -0.000314651299290
   0.001431854400614
  -0.001200309077703
   0.001478661179558
   0.001350504773785
  -0.001202313204317
  -0.001239094672193
   0.000733202586969
   0.004581964941288
   0.000651173810311
   0.001988804748293
  -0.002324729954410
   0.002196427263103
   0.000560721561969
   0.004009587906623
   0.002559197641367
   0.000296359332941
   0.004726472772241
   0.000148573251890
  -0.000221433787992
  -0.000536022931549
   0.001603468608568
  -0.000261969653245
  -0.000683764112381
   0.000543411656402
  -0.000122754336455
   0.003464758762505
   0.000854609066645
  -0.000224334730395
  -0.003167984574752
   0.001459702825539
  -0.000161631801558
   0.003169380012125
  -0.037065754886196
   0.005107844935873
   0.021406814504850
   0.003233110142981
   0.004504928229648
   0.023521110129188
   0.000935376292712
  -0.002272114789959
  -0.005714263351553
   0.000638916937880
  -0.002261430189364
  -0.008000171791522
   0.001343712229374
  -0.002340726193651
  -0.008033528594950
   0.000417646798042
  -0.001952968506870
  -0.006677705857140
   0.000963578667325
  -0.002474208161977
  -0.008967717648947
   0.001390708322839
  -0.002007795328639
  -0.006491245282696
   0.000719795767925
  -0.002364671662574
  -0.003154095687748
   0.000224631411458
  -0.000907379619429
  -0.006875317298096
   0.001914169179102
  -0.000961327126019
  -0.006776519698668
   0.000205471530631
  -0.001696779633244
  -0.004456214046392
   0.001302281857474
  -0.000401182388010
  -0.007790693641198
   0.001486640830590
  -0.001750920206241
  -0.004500447226889
  -0.000473356818504
  -0.000469693084304
   0.001130284598311
   0.001078474116076
   0.001871745186127
  -0.005664675983923
   0.002264515796099
  -0.000372740725209
   0.001386096319315
   0.000910885939326
  -0.000641453110047
   0.003760541496504
  -0.000240943997984
   0.001427009198617
  -0.003046342575736
   0.002044552344652
   0.001388495878413
  -0.003163133002204
   0.001308615523942
  -0.001834505684773
   0.010752124803510
  -0.000375637572590
   0.002606605490126
  -0.000573109519159
   0.002663233976312
   0.002505312835591
  -0.000628202292269
  -0.002571111660338
   0.001590925672335
   0.010703249749589
   0.001267264064711
   0.003892922994934
  -0.002816636163345
   0.003286137742924
   0.000674631385728
   0.008025544124457
   0.002958157805027
   0.000388083962786
   0.002471838390747
   0.000320350156516
  -0.000320058214697
   0.000070551892556
   0.002639959032887
  -0.000370300920121
  -0.000225978704805
   0.001176893957032
  -0.000182421901221
   0.008002394137463
   0.001570993037375
  -0.000280019194762
  -0.004980722206739
   0.002460731474397
  -0.000095809129072
   0.007306170427491
  -0.013075230991086
   0.001703576212787
   0.001257915764079
   0.001645324743532
   0.001944084132919
   0.005437491056327
   0.000651672565944
  -0.001618588906715
  -0.001903200959227
   0.000354630380924
  -0.001783296980895
  -0.003599484773268
   0.000549084754741
  -0.001931436223728
  -0.003973399650611
   0.000160105256672
  -0.001645678074606
  -0.002544998371157
   0.000491829371534
  -0.001903071121652
  -0.004402543237710
   0.000650446449102
  -0.001801071997846
  -0.002441812686772
   0.000389394984313
  -0.002020896019529
  -0.000687810687985
   0.000010162462007
  -0.000756557230194
  -0.003935675889089
   0.000713526507775
  -0.000691989214904
  -0.003875017778761
   0.000115986208883
  -0.001164141037915
  -0.001623847450922
   0.000676026400253
  -0.000020930198462
  -0.004645230823996
   0.000886221628429
  -0.001332127560741
  -0.001719988218987
  -0.000027004287408
  -0.000368047228548
   0.000615986653585
   0.000337626219473
   0.001919418505547
  -0.004972868389515
   0.000977917093753
   0.000060037607418
   0.000812760787980
   0.000733608321401
  -0.000723036168591
   0.002643955163180
  -0.000588411286666
   0.001498371151417
  -0.002374046769411
   0.000526568052662
   0.001096468766678
  -0.003409377382546
   0.000767609127477
   0.000577060366822
   0.006460838446166
   0.000229763148657
   0.002539040960595
  -0.000463651604420
   0.001145766289584
   0.002139103372323
  -0.000558144471228
  -0.000562842285501
   0.000902363012252
   0.007390472655445
   0.000614016486121
   0.003177770063767
  -0.002565180309503
  -0.000897373142891
  -0.000955690113087
   0.002375609481135
  -0.002392534951485
   0.000804375887604
   0.007238067587501
   0.000841333522254
   0.000313893082250
   0.001454029142231
   0.000557254501517
   0.000080425529909
   0.001437935175879
   0.001615828010823
  -0.000205463073694
   0.007766112314272
   0.001062155578131
  -0.000038071932815
  -0.002120585680828
   0.000839538879070
   0.000204104431626
   0.006925690908183
  -0.004480465474890
   0.001118002542242
  -0.010890160885481
   0.002405734734287
  -0.001690486480394
  -0.004919854606825
   0.000519724937893
  -0.002964862380080
  -0.003320966430426
   0.000139586548246
  -0.002932379307521
  -0.006863305553189
   0.001135330060164
  -0.003458652024283
  -0.007432330128225
   0.000043427290559
  -0.002704031516203
  -0.004903265764536
   0.000360670189786
  -0.003803889708062
  -0.008611308111000
   0.000747803229949
  -0.002960908508791
  -0.004879576896830
   0.000344546362405
  -0.002934561937769
   0.002167015035212
  -0.000165751242635
  -0.000442400113988
  -0.003737375805748
   0.001196053176152
  -0.000152026319077
  -0.004308243201834
  -0.000310186516021
  -0.002103953941528
   0.000313644855481
   0.000821547290220
  -0.000008140323932
  -0.005930946767585
   0.001484209422843
  -0.002485242988056
  -0.000423915639807
  -0.000051715871975
  -0.000500476067531
   0.005394243769736
  -0.000250662545921
   0.003248446537451
  -0.005997259006428
   0.001296822392344
   0.000168406368260
   0.004058011970628
   0.001445849569990
  -0.000643702334638
   0.007707254673200
  -0.001397343005437
   0.002821555957303
  -0.000577102234779
   0.000008420996252
   0.002229557082805
  -0.003741013554745
   0.000709646393028
   0.001017432876650
   0.010691442542580
  -0.000394917590657
   0.004057994490468
  -0.000114008802043
   0.001256990118964
   0.002860884310978
  -0.000540464768029
  -0.000952209415817
   0.001979816362194
   0.010793640391277
  -0.000268533281498
   0.006395627054418
  -0.004124233605978
  -0.002352862157840
  -0.001021914242205
   0.001737462168521
  -0.005871684613788
   0.000809470259181
   0.005461297307960
   0.001006634945390
   0.001329182891904
   0.004005039243310
  -0.001142610915689
   0.000809065786139
   0.003525891483079
   0.002429874209104
   0.000139100200881
   0.013875519226517
   0.000843445233621
   0.000789748100008
  -0.000746717700160
  -0.000557374469034
   0.001033337373170
   0.012331586796186
   0.005573740913507
  -0.000373130847295
   0.001289281384359
  -0.004332856328677
  -0.001135984795647
   0.001189308036153
   0.000379657587213
  -0.000869933968159
   0.000346845036297
   0.000110920632746
  -0.000986570149334
  -0.000621572587566
  -0.000033068231787
  -0.001043334940417
  -0.000951594750660
   0.000127041669008
  -0.000836319800475
   0.000091868926173
   0.000112101784998
  -0.001064730924800
  -0.001227406574813
   0.000388895508802
  -0.001085222238442
   0.000140751208253
   0.000297603836000
  -0.000886913547760
   0.000507457754175
  -0.000078940104838
  -0.000383342061628
  -0.001568270671491
   0.000205701607625
  -0.000351595134909
  -0.001786308780090
   0.000175151859662
  -0.000645282225926
   0.000035837835085
  -0.000174502551720
   0.000441075488834
  -0.002289197518081
   0.000177536553196
  -0.000645052493875
  -0.000038727624982
  -0.000205349641003
   0.000213354369509
   0.000992116342083
   0.000038651981526
   0.001550739543407
  -0.001762798365377
   0.000308728952341
   0.000604584900064
   0.000371015006984
   0.000086200409159
  -0.000489720722750
   0.001426218886969
  -0.000282100055207
   0.000756090834273
  -0.000781085948681
   0.000054266488251
   0.000339501505872
  -0.001682783134150
  -0.000286790317703
   0.001125402391641
   0.001984812125144
   0.000061130956832
   0.001662470634058
   0.000869386004183
  -0.000261304619038
   0.001340122409086
   0.000262859263373
   0.000677273634452
  -0.000039196644511
   0.001981761882398
  -0.000173164777576
   0.001270137943105
  -0.000472015839428
  -0.001037180459033
  -0.000558582157118
   0.000201772670216
  -0.000384547690866
  -0.000028944385033
  -0.004830661106695
  -0.000400350664314
   0.000593016388558
   0.001230993412179
  -0.000526583447593
   0.000214007462603
   0.000538896258483
   0.000104801022615
   0.000159258122006
   0.002610288632084
   0.000239940290088
   0.000534619375507
  -0.000133030884939
  -0.000942606798667
   0.000619475669555
   0.002073983122358
   0.003318167298799
  -0.000233093394012
   0.003787877542365
  -0.002908750366871
  -0.000101609683787
   0.002611407574307
   0.000426351278855
  -0.002378734534263
  -0.001431265007756
   0.000192411662870
  -0.002471286248745
  -0.004204200315620
   0.000496744833045
  -0.002836812122728
  -0.004858349219504
   0.000258632034194
  -0.002229669711639
  -0.002258677399841
   0.000391258583779
  -0.002806784322974
  -0.005656101338829
   0.000557414449737
  -0.002478090527928
  -0.002472188153515
   0.000507189711306
  -0.002251858818028
   0.001799742062502
   0.000056266868594
  -0.000576962525720
  -0.002720309341377
   0.000511574154634
  -0.000384835307488
  -0.003399987923274
   0.000236240998170
  -0.001735106653663
   0.000626203768356
  -0.000023352488936
   0.000339687514721
  -0.004620124425848
   0.000723618296155
  -0.001742716328491
  -0.000068474485332
  -0.000005669386115
   0.000037400902521
   0.003214988067839
   0.000034675266813
   0.002718761495164
  -0.004240507679285
   0.000303220085183
   0.000515802835640
   0.001532722782464
   0.000401371893548
  -0.000660326542016
   0.004162079600100
  -0.000309979296804
   0.001913003224349
  -0.001237324212440
  -0.000163552909845
   0.001704083060468
  -0.003073245674535
  -0.000412153082452
   0.001556312805831
   0.005531251859423
   0.000036037965481
   0.003101859800735
   0.000973712395769
  -0.000353425756566
   0.002445417872780
  -0.000380657726033
   0.000894322362224
   0.000529555017067
   0.004262454943422
  -0.000437588439708
   0.003766914934078
  -0.002268944908884
  -0.001813619423634
  -0.000101897088724
   0.001242137716282
  -0.000559808967939
   0.000295166635551
  -0.003266096206964
   0.000142297948087
   0.001163322708111
   0.002584558937471
  -0.001251207135047
   0.000564726220176
   0.001072366366664
   0.000625562647370
   0.000292295051593
   0.007061581994613
   0.000126023189503
   0.001089774203071
  -0.000131211609805
  -0.002000274274430
   0.000955699528348
   0.005824580017276
   0.005813514344432
  -0.001740189543594
  -0.000318146219676
   0.004123150012765
   0.001690586503060
  -0.002886059101222
  -0.000253590839435
  -0.000283643120611
   0.002408117779130
  -0.000235143502090
  -0.000390545553662
   0.001506933047683
  -0.000134980684724
  -0.000191948786242
   0.001519493369543
  -0.000220536416084
  -0.000656887770798
   0.002142220998266
  -0.000306442870072
  -0.000319434983960
   0.001385519130192
  -0.000134070637809
  -0.000685010886479
   0.002067392945794
  -0.000049881865306
  -0.000406281291410
   0.000801898765829
  -0.000288850777936
  -0.000229594871495
   0.000411811280010
  -0.000161034083282
  -0.000033757086294
   0.000128772562000
  -0.000384126422817
  -0.000225368423891
   0.000770878949083
  -0.000271358747114
   0.000127998175927
  -0.000044354943007
  -0.000056464777824
   0.000051419987443
   0.000499557526005
  -0.000088810575100
   0.000204428527192
   0.000363941984240
  -0.000154495279952
   0.000236241430245
   0.000279670644602
  -0.000699339574551
   0.000381387729716
  -0.000213378893520
  -0.000740833466394
  -0.000068200152303
  -0.000308611362044
   0.000166006903277
  -0.000028797582688
  -0.000014175895146
  -0.000241690689808
   0.000048931571459
   0.000130187070816
  -0.000913857854876
   0.000280973791059
  -0.001045577685836
  -0.000143783182135
   0.000057214447777
   0.000713762516924
  -0.000910086745968
   0.000201007974706
  -0.000077439956371
   0.000143383512134
  -0.000173553452262
  -0.002039010569888
  -0.000290770009248
  -0.000266573977166
   0.000363744574685
  -0.000142265855715
   0.000801953966467
  -0.000439914132329
   0.000406188814366
   0.000054172603411
  -0.001207754447286
  -0.000596954522324
   0.000347748259458
  -0.000589146541444
  -0.000550686637242
   0.000461624994214
  -0.001314941320267
  -0.000934206435037
   0.000388967269565
  -0.002378761258505
  -0.000707856416722
   0.000370374184119
   0.000025663799470
  -0.001040124717406
  -0.000005243932959
  -0.002642294617736
  -0.000381582749631
  -0.000312279703333
  -0.002575848326117
   0.001856716201303
   0.000069117186206
  -0.002949042075088
   0.000139840170210
  -0.000941531363266
   0.000700249425410
   0.000002218409985
  -0.001009868756797
  -0.000722039934498
   0.000227930273999
  -0.000963037638550
  -0.000831120905630
  -0.000015807591212
  -0.001051116746023
   0.000166708253772
   0.000016152035655
  -0.001071936256841
  -0.001274299107138
   0.000251045988382
  -0.001113734608549
   0.000121631918763
   0.000146280650019
  -0.000889077560204
   0.000870460072882
  -0.000105633082569
  -0.000239488059250
  -0.000789176730883
   0.000232302626712
  -0.000098055949847
  -0.001086277872687
  -0.000102919928302
  -0.000707136499465
   0.000409092438851
   0.000116635100733
   0.000069589751533
  -0.001496059778773
   0.000282533317542
  -0.000590612889159
   0.000103594176146
  -0.000079482517465
   0.000064301851520
   0.001230354653181
  -0.000088832556460
   0.000960439582740
  -0.001359434174084
   0.000102126403982
   0.000258751407399
   0.000676210323633
  -0.000015621690077
  -0.000128280630157
   0.001487481181940
  -0.000075410982743
   0.000585975084353
  -0.000423736352424
   0.000016205682074
   0.000556385242867
  -0.000926058060010
  -0.000215053141606
   0.000177765131331
   0.002069482298829
  -0.000208071919159
   0.000976298956158
   0.000273747290734
  -0.000060611937421
   0.000913797198923
  -0.000236196668929
  -0.000310546249041
   0.000506505646403
   0.001508627805443
  -0.000116040976045
   0.001344074549190
  -0.000728119220781
  -0.000104144526645
   0.000502877697686
   0.000732248993138
  -0.000619989296942
   0.000244939420568