:RELAXSTEP: 26
:E(Ha): -5.477934614749382E+03
:R(Bohr):
   0.171817062460787    2.609792404896487   28.367860693157052
   4.776434061964929    2.611146471340974   28.370881975985938
   9.712217516504420    2.611152402287159   28.371193539059359
   2.309979923290991    6.788604727250625   28.370396997462233
   7.241222444829462    6.788803383857120   28.371380798667346
  12.175745608922758    6.787553779454836   28.367992752269124
  14.311851939400798    8.183992069663702   32.294655706643049
   4.772185759683863    8.181286766219120   32.297349153545547
   9.705526618119658    8.181863096436183   32.298173847787545
   2.307734735082666    4.004785506328187   32.299931068918113
   7.241362992090844    4.005652393795091   32.293096400056100
  12.172705213973497    4.005110869910401   32.292491035268185
   2.310007720950318    1.229521687030803   36.220462687440119
   7.241355265832073    1.545464125083179   36.224227870123499
  12.174283478258841    1.555208806425462   36.225786656094591
  14.310747139419583    5.731098914382698   36.223589901871264
   4.769568313609884    5.408612871130078   36.222073030899324
   9.705763623788330    5.417491458987821   36.222228218341336
   0.171935795379728    2.958547392068199   40.148118766429917
   4.776888400042500    2.956464523234187   40.152130952107512
   9.711542535892107    2.957191703690595   40.153184006129003
   2.310906501513794    7.134205961679052   40.152196631485097
   7.241282895088154    7.135737610329871   40.148066669321480
  12.172915883360504    7.136286462057606   40.149083957021965
  14.311570666574005    0.175335876920993   44.078358231810633
   4.771040823789177    0.173706188348278   44.075163832449320
   9.706481105845221    0.173885292917043   44.075435401356664
   2.307312624494248    4.352523703960259   44.078300476271707
   7.241864870597504    4.351521726040639   44.074908571465215
  12.173366899552619    4.351515700525017   44.075976818117290
:ISFD: 0
:ISRESET: 0
:STEP: 3
:DX:
  -0.003132033825145
  -0.002116808918801
  -0.000024605553055
   0.002298905165643
  -0.003819554559980
  -0.000098530477249
   0.001519488379893
  -0.003825883850261
  -0.000029435889953
   0.001427492855945
  -0.004868037823171
   0.000342910783949
   0.001035636817150
  -0.005974868836234
  -0.000294065800794
   0.001206089358353
  -0.004701928853375
  -0.000454542922313
  -0.043780557039627
  -0.003917309170388
   0.001293369440326
   0.000480999287478
  -0.004045239860195
   0.001528528756246
  -0.000008153403883
  -0.003630284486043
   0.001434767124060
   0.000927606239532
  -0.003289017946002
  -0.000809001999208
   0.001206173936612
  -0.003016154794184
  -0.002263986177887
   0.000287510132827
  -0.002839718436049
  -0.001814998961947
   0.001722727647471
  -0.040996616423794
  -0.001275582775413
   0.001557229080113
   0.024171993402309
   0.000365141676426
   0.002141718997384
   0.052674503906585
   0.000856111521124
   0.034127672972655
  -0.014884451843651
  -0.000273088771024
  -0.000306800680239
   0.031292589341507
  -0.000280850120937
   0.001780446716097
   0.026295746650952
   0.000158096874003
  -0.023125507369018
  -0.003072913763297
  -0.000755315500143
   0.003509055000468
  -0.003166843593070
  -0.000776380239628
   0.002443474259723
  -0.002559281324850
  -0.001210552934872
   0.002003245663973
  -0.003887395485356
   0.002249249497510
   0.001048485620581
  -0.003031653009129
   0.000933718603349
   0.001324482873949
  -0.003720155412704
  -0.000311240152094
   0.007564452895064
  -0.004316470312009
   0.000257602481817
   0.000212858738962
  -0.002600638462556
   0.000003624534862
  -0.001817620880903
  -0.002603389606634
   0.000342660797003
   0.000602087103522
  -0.001809734950292
   0.000807200907332
   0.001436191021877
   0.000085992066980
   0.000404886646898
   0.000306642433545
  -0.001826473646304
  -0.000305691368403
   0.000555944174987
  -0.001568853709693
   0.000048599626854
   0.000332744028677
  -0.001710285960233
   0.000043720877962
   0.000371300569478
  -0.001680447612195
  -0.000039700672410
   0.000266618030107
  -0.001480866219725
   0.000295479877277
   0.000432554556351
  -0.001782680781386
  -0.000004633292683
   0.000197259390102
  -0.001769924832881
  -0.000371808654151
  -0.011416740461572
  -0.001497385548793
   0.000228750799501
   0.000025910270648
  -0.001406345171310
  -0.000384651591673
  -0.000664171914403
  -0.001314308322135
  -0.000000110727015
   0.000253548742624
  -0.001849667356237
   0.000226312274229
   0.000403891937710
  -0.001357593230755
  -0.000000434143850
  -0.000011090495850
  -0.001089255949331
  -0.000271272355377
   0.000885175657065
  -0.012434873543952
  -0.000206180598830
   0.000281325272040
   0.006463788288130
   0.000150338822273
   0.001125254318078
   0.039146871573978
   0.000326157058680
   0.000404927682345
  -0.001587491108481
  -0.000028266908771
   0.000825515155557
   0.000769816470156
   0.000230179072439
   0.000930330374006
   0.003031768980250
   0.000166113101791
   0.000989979171932
  -0.001627129253344
   0.000206240287135
  -0.000274430056947
  -0.001321373652171
  -0.000365560921530
   0.000119721177807
  -0.001217037530715
  -0.000035433500265
   0.000337042524982
  -0.001690252187134
   0.000540537080944
   0.000473596843118
  -0.001268369832973
  -0.000107333027728
   0.000517233871861
  -0.001276960564132
  -0.000668257865200
   0.000494782583093
  -0.001543188511197
   0.000014113668684
   0.000417599797984
  -0.001348818884806
   0.000031868477336
   0.000588545926291
  -0.001399605949230
   0.000006377751511
   0.000384269427379
  -0.001537730655918
  -0.000197545013137
   0.000344178630253
  -0.001257452685606
   0.000022055008337
   0.000407182814296
  -0.001394346258183
   0.000144345487683
   0.000664561479806
  -0.000063676700405
   0.000025018398464
  -0.000364614052304
   0.000237701599549
   0.000022904983602
  -0.000218455168788
   0.000231984001898
   0.000001824939439
  -0.000248267480279
   0.000484560245418
   0.000025432159795
  -0.000118670407678
   0.000612510388724
   0.000048508414235
  -0.000218681320526
   0.000365365681868
  -0.000018950365213
   0.006477456009625
   0.000332422439493
  -0.000102332704472
  -0.000150483723369
   0.000330230894317
  -0.000345891869166
  -0.000242522379176
   0.000325630368607
  -0.000206085635234
  -0.000179058593670
   0.000074831147035
   0.000242897974019
  -0.000165524032530
   0.000186721317374
   0.000374372168459
  -0.000121330386017
   0.000326915040110
   0.000032530816519
  -0.000148520809570
   0.005243020009282
   0.000140420891348
  -0.000232094893978
  -0.003291609013447
  -0.000022648353891
   0.000064629905939
  -0.000104630639310
   0.000026108740400
  -0.006222379331476
   0.002923287036828
   0.000045586884816
   0.000154732426009
  -0.005821094982535
   0.000072321275319
  -0.000387796922166
  -0.003585305259841
   0.000005963420762
   0.004438221662474
   0.000116793765920
   0.000215410015237
  -0.000689371706571
   0.000181610641315
   0.000081572059045
  -0.000467272951493
   0.000135814934319
   0.000292743955931
  -0.000301062438513
   0.000214534590779
  -0.000271842332999
  -0.000120179334675
   0.000204949287522
  -0.000210922803255
  -0.000144497817145
   0.000427587280621
  -0.000195883755154
  -0.001303104820805
   0.000358866460283
  -0.000044955221995
   0.000040643508319
   0.000077249636459
   0.000000994101001
   0.000434014539595
   0.000065284832023
  -0.000067518931196
  -0.000031314986153
  -0.000110346345398
  -0.000163444655819
  -0.000215380100174
  -0.000405707823673
  -0.000075424048944
   0.000016324125289
  -0.000075500835137
   0.000071289478946
   0.000569854244925
  -0.000068808476195
  -0.000004084832618
   0.000005780857757
  -0.000191640261106
  -0.000002560082063
  -0.000003704443865
  -0.000192163049689
  -0.000000653694464
   0.000004284137119
   0.000011439382489
  -0.000005737482518
  -0.000001037296292
  -0.000524757498599
   0.000001681412268
   0.000000686279034
   0.000011598873661
  -0.000004433384177
  -0.000042170483631
  -0.000005970682453
  -0.000013212625241
   0.000011559187905
  -0.000025838498955
  -0.000036288303171
  -0.000013352589766
  -0.000025782593841
  -0.000036615848806
  -0.000005599324890
  -0.000031185718064
   0.000016308643126
  -0.000000097306951
  -0.000069568014382
   0.000044014923780
   0.000005045493259
  -0.000032575892746
   0.000012833360628
  -0.000000497606299
  -0.000073626941896
   0.000000521247955
  -0.000000938149765
   0.000058489200162
   0.000000840192612
  -0.000002261846538
  -0.000001417093833
  -0.000000147710708
  -0.000136760775684
   0.000199305173979
   0.000000794709379
   0.000002769174981
  -0.000133857231334
   0.000000598931713
  -0.000005643769532
  -0.000179354218896
  -0.000000445435930
   0.000048235720575
   0.000019157490785
   0.000011810011074
   0.000011888786033
   0.000036518276779
   0.000037513145536
  -0.000013223058025
   0.000036667106544
   0.000038192623713
  -0.000006320089786
   0.000044089322839
  -0.000013065163550
  -0.000001398230599
   0.000081159601423
  -0.000044377354840
   0.000003160570591
   0.000043056632880
  -0.000014226731707
  -0.000419158991454
   0.000080302115275
   0.000002904301027
   0.000003079306753
   0.000203077757754
   0.000000114287452
  -0.000007244877017
   0.000203260009608
   0.000001608129480
  -0.000001459492631
   0.000000677586390
   0.000003837242723
   0.000000003841021
   0.000527082808142
  -0.000002426438847
  -0.000005479267227
   0.000000664833278
   0.000004701926180
   0.000000000000000
   0.000000000000000
   0.000000000000000
   0.000000000000000
   0.000000000000000
   0.000000000000000
   0.000000000000000
   0.000000000000000
   0.000000000000000
   0.000000000000000
   0.000000000000000
   0.000000000000000
   0.000000000000000
   0.000000000000000
   0.000000000000000
   0.000000000000000
   0.000000000000000
   0.000000000000000
   0.000000000000000
   0.000000000000000
   0.000000000000000
   0.000000000000000
   0.000000000000000
   0.000000000000000
   0.000000000000000
   0.000000000000000
   0.000000000000000
   0.000000000000000
   0.000000000000000
   0.000000000000000
   0.000000000000000
   0.000000000000000
   0.000000000000000
   0.000000000000000
   0.000000000000000
   0.000000000000000
   0.000000000000000
   0.000000000000000
   0.000000000000000
   0.000000000000000
   0.000000000000000
   0.000000000000000
   0.000000000000000
   0.000000000000000
   0.000000000000000
   0.000000000000000
   0.000000000000000
   0.000000000000000
   0.000000000000000
   0.000000000000000
   0.000000000000000
   0.000000000000000
   0.000000000000000
   0.000000000000000
   0.000000000000000
   0.000000000000000
   0.000000000000000
   0.000000000000000
   0.000000000000000
   0.000000000000000
   0.000000000000000
   0.000000000000000
   0.000000000000000
   0.000000000000000
   0.000000000000000
   0.000000000000000
   0.000000000000000
   0.000000000000000
   0.000000000000000
   0.000000000000000
   0.000000000000000
   0.000000000000000
   0.000000000000000
   0.000000000000000
   0.000000000000000
   0.000000000000000
   0.000000000000000
   0.000000000000000
   0.000000000000000
   0.000000000000000
   0.000000000000000
   0.000000000000000
   0.000000000000000
   0.000000000000000
   0.000000000000000
   0.000000000000000
   0.000000000000000
   0.000000000000000
   0.000000000000000
   0.000000000000000
   0.000000000000000
   0.000000000000000
   0.000000000000000
   0.000000000000000
   0.000000000000000
   0.000000000000000
   0.000000000000000
   0.000000000000000
   0.000000000000000
   0.000000000000000
   0.000000000000000
   0.000000000000000
   0.000000000000000
   0.000000000000000
   0.000000000000000
   0.000000000000000
   0.000000000000000
   0.000000000000000
   0.000000000000000
   0.000000000000000
   0.000000000000000
   0.000000000000000
   0.000000000000000
   0.000000000000000
   0.000000000000000
   0.000000000000000
   0.000000000000000
   0.000000000000000
   0.000000000000000
   0.000000000000000
   0.000000000000000
   0.000000000000000
   0.000000000000000
   0.000000000000000
   0.000000000000000
   0.000000000000000
   0.000000000000000
   0.000000000000000
   0.000000000000000
   0.000000000000000
   0.000000000000000
   0.000000000000000
   0.000000000000000
   0.000000000000000
   0.000000000000000
   0.000000000000000
   0.000000000000000
   0.000000000000000
   0.000000000000000
   0.000000000000000
   0.000000000000000
   0.000000000000000
   0.000000000000000
   0.000000000000000
   0.000000000000000
   0.000000000000000
   0.000000000000000
   0.000000000000000
   0.000000000000000
   0.000000000000000
   0.000000000000000
   0.000000000000000
   0.000000000000000
   0.000000000000000
   0.000000000000000
   0.000000000000000
   0.000000000000000
   0.000000000000000
   0.000000000000000
   0.000000000000000
   0.000000000000000
   0.000000000000000
   0.000000000000000
   0.000000000000000
   0.000000000000000
   0.000000000000000
   0.000000000000000
   0.000000000000000
   0.000000000000000
   0.000000000000000
   0.000000000000000
   0.000000000000000
   0.000000000000000
   0.000000000000000
   0.000000000000000
   0.000000000000000
   0.000000000000000
   0.000000000000000
   0.000000000000000
   0.000000000000000
   0.000000000000000
   0.000000000000000
   0.000000000000000
   0.000000000000000
   0.000000000000000
   0.000000000000000
   0.000000000000000
   0.000000000000000
   0.000000000000000
   0.000000000000000
   0.000000000000000
   0.000000000000000
   0.000000000000000
   0.000000000000000
   0.000000000000000
   0.000000000000000
   0.000000000000000
   0.000000000000000
   0.000000000000000
   0.000000000000000
   0.000000000000000
   0.000000000000000
   0.000000000000000
   0.000000000000000
   0.000000000000000
   0.000000000000000
   0.000000000000000
   0.000000000000000
   0.000000000000000
   0.000000000000000
   0.000000000000000
   0.000000000000000
   0.000000000000000
   0.000000000000000
   0.000000000000000
   0.000000000000000
   0.000000000000000
   0.000000000000000
   0.000000000000000
   0.000000000000000
   0.000000000000000
   0.000000000000000
   0.000000000000000
   0.000000000000000
   0.000000000000000
   0.000000000000000
   0.000000000000000
   0.000000000000000
   0.000000000000000
   0.000000000000000
   0.000000000000000
   0.000000000000000
   0.000000000000000
   0.000000000000000
   0.000000000000000
   0.000000000000000
   0.000000000000000
   0.000000000000000
   0.000000000000000
   0.000000000000000
   0.000000000000000
   0.000000000000000
   0.000000000000000
   0.000000000000000
   0.000000000000000
   0.000000000000000
   0.000000000000000
   0.000000000000000
   0.000000000000000
   0.000000000000000
   0.000000000000000
   0.000000000000000
   0.000000000000000
   0.000000000000000
   0.000000000000000
   0.000000000000000
   0.000000000000000
   0.000000000000000
   0.000000000000000
   0.000000000000000
   0.000000000000000
   0.000000000000000
   0.000000000000000
   0.000000000000000
   0.000000000000000
   0.000000000000000
   0.000000000000000
   0.000000000000000
   0.000000000000000
   0.000000000000000
   0.000000000000000
   0.000000000000000
   0.000000000000000
   0.000000000000000
   0.000000000000000
   0.000000000000000
   0.000000000000000
   0.000000000000000
   0.000000000000000
   0.000000000000000
   0.000000000000000
   0.000000000000000
   0.000000000000000
   0.000000000000000
   0.000000000000000
   0.000000000000000
   0.000000000000000
   0.000000000000000
   0.000000000000000
   0.000000000000000
   0.000000000000000
   0.000000000000000
   0.000000000000000
   0.000000000000000
   0.000000000000000
   0.000000000000000
   0.000000000000000
   0.000000000000000
   0.000000000000000
   0.000000000000000
   0.000000000000000
   0.000000000000000
   0.000000000000000
   0.000000000000000
   0.000000000000000
   0.000000000000000
   0.000000000000000
   0.000000000000000
   0.000000000000000
   0.000000000000000
   0.000000000000000
   0.000000000000000
   0.000000000000000
   0.000000000000000
   0.000000000000000
   0.000000000000000
   0.000000000000000
   0.000000000000000
   0.000000000000000
   0.000000000000000
   0.000000000000000
   0.000000000000000
   0.000000000000000
   0.000000000000000
   0.000000000000000
   0.000000000000000
   0.000000000000000
   0.000000000000000
   0.000000000000000
   0.000000000000000
   0.000000000000000
   0.000000000000000
   0.000000000000000
   0.000000000000000
   0.000000000000000
   0.000000000000000
   0.000000000000000
   0.000000000000000
   0.000000000000000
   0.000000000000000
   0.000000000000000
   0.000000000000000
   0.000000000000000
   0.000000000000000
   0.000000000000000
   0.000000000000000
   0.000000000000000
   0.000000000000000
   0.000000000000000
   0.000000000000000
   0.000000000000000
   0.000000000000000
   0.000000000000000
   0.000000000000000
   0.000000000000000
   0.000000000000000
   0.000000000000000
   0.000000000000000
   0.000000000000000
   0.000000000000000
   0.000000000000000
   0.000000000000000
   0.000000000000000
   0.000000000000000
   0.000000000000000
   0.000000000000000
   0.000000000000000
   0.000000000000000
   0.000000000000000
   0.000000000000000
   0.000000000000000
   0.000000000000000
   0.000000000000000
   0.000000000000000
   0.000000000000000
   0.000000000000000
   0.000000000000000
   0.000000000000000
   0.000000000000000
   0.000000000000000
   0.000000000000000
   0.000000000000000
   0.000000000000000
   0.000000000000000
   0.000000000000000
   0.000000000000000
   0.000000000000000
   0.000000000000000
   0.000000000000000
   0.000000000000000
   0.000000000000000
   0.000000000000000
   0.000000000000000
   0.000000000000000
   0.000000000000000
   0.000000000000000
   0.000000000000000
   0.000000000000000
   0.000000000000000
   0.000000000000000
   0.000000000000000
   0.000000000000000
   0.000000000000000
   0.000000000000000
   0.000000000000000
   0.000000000000000
   0.000000000000000
   0.000000000000000
   0.000000000000000
   0.000000000000000
   0.000000000000000
   0.000000000000000
   0.000000000000000
   0.000000000000000
   0.000000000000000
   0.000000000000000
   0.000000000000000
   0.000000000000000
   0.000000000000000
   0.000000000000000
   0.000000000000000
   0.000000000000000
   0.000000000000000
   0.000000000000000
   0.000000000000000
   0.000000000000000
   0.000000000000000
   0.000000000000000
   0.000000000000000
   0.000000000000000
   0.000000000000000
   0.000000000000000
   0.000000000000000
   0.000000000000000
   0.000000000000000
   0.000000000000000
   0.000000000000000
   0.000000000000000
   0.000000000000000
   0.000000000000000
   0.000000000000000
   0.000000000000000
   0.000000000000000
   0.000000000000000
   0.000000000000000
   0.000000000000000
   0.000000000000000
   0.000000000000000
   0.000000000000000
   0.000000000000000
   0.000000000000000
   0.000000000000000
   0.000000000000000
   0.000000000000000
   0.000000000000000
   0.000000000000000
   0.000000000000000
   0.000000000000000
   0.000000000000000
   0.000000000000000
   0.000000000000000
   0.000000000000000
   0.000000000000000
   0.000000000000000
   0.000000000000000
   0.000000000000000
   0.000000000000000
   0.000000000000000
   0.000000000000000
   0.000000000000000
   0.000000000000000
   0.000000000000000
   0.000000000000000
   0.000000000000000
   0.000000000000000
   0.000000000000000
   0.000000000000000
   0.000000000000000
   0.000000000000000
   0.000000000000000
   0.000000000000000
   0.000000000000000
   0.000000000000000
   0.000000000000000
   0.000000000000000
   0.000000000000000
   0.000000000000000
   0.000000000000000
   0.000000000000000
   0.000000000000000
   0.000000000000000
   0.000000000000000
   0.000000000000000
   0.000000000000000
   0.000000000000000
   0.000000000000000
   0.000000000000000
   0.000000000000000
   0.000000000000000
   0.000000000000000
   0.000000000000000
   0.000000000000000
   0.000000000000000
   0.000000000000000
   0.000000000000000
   0.000000000000000
   0.000000000000000
   0.000000000000000
   0.000000000000000
   0.000000000000000
   0.000000000000000
   0.000000000000000
   0.000000000000000
   0.000000000000000
   0.000000000000000
   0.000000000000000
   0.000000000000000
   0.000000000000000
   0.000000000000000
   0.000000000000000
   0.000000000000000
   0.000000000000000
   0.000000000000000
   0.000000000000000
   0.000000000000000
   0.000000000000000
   0.000000000000000
   0.000000000000000
   0.000000000000000
   0.000000000000000
   0.000000000000000
   0.000000000000000
   0.000000000000000
   0.000000000000000
   0.000000000000000
   0.000000000000000
   0.000000000000000
   0.000000000000000
   0.000000000000000
   0.000000000000000
   0.000000000000000
   0.000000000000000
   0.000000000000000
   0.000000000000000
   0.000000000000000
   0.000000000000000
   0.000000000000000
   0.000000000000000
   0.000000000000000
   0.000000000000000
   0.000000000000000
   0.000000000000000
   0.000000000000000
   0.000000000000000
   0.000000000000000
   0.000000000000000
   0.000000000000000
   0.000000000000000
   0.000000000000000
   0.000000000000000
   0.000000000000000
   0.000000000000000
   0.000000000000000
   0.000000000000000
   0.000000000000000
   0.000000000000000
   0.000000000000000
   0.000000000000000
   0.000000000000000
   0.000000000000000
   0.000000000000000
   0.000000000000000
   0.000000000000000
   0.000000000000000
   0.000000000000000
   0.000000000000000
   0.000000000000000
   0.000000000000000
   0.000000000000000
   0.000000000000000
   0.000000000000000
   0.000000000000000
   0.000000000000000
   0.000000000000000
   0.000000000000000
   0.000000000000000
   0.000000000000000
   0.000000000000000
   0.000000000000000
   0.000000000000000
   0.000000000000000
   0.000000000000000
   0.000000000000000
   0.000000000000000
   0.000000000000000
   0.000000000000000
   0.000000000000000
   0.000000000000000
   0.000000000000000
   0.000000000000000
   0.000000000000000
   0.000000000000000
   0.000000000000000
   0.000000000000000
   0.000000000000000
   0.000000000000000
   0.000000000000000
   0.000000000000000
   0.000000000000000
   0.000000000000000
   0.000000000000000
   0.000000000000000
   0.000000000000000
   0.000000000000000
   0.000000000000000
   0.000000000000000
   0.000000000000000
   0.000000000000000
   0.000000000000000
   0.000000000000000
   0.000000000000000
   0.000000000000000
   0.000000000000000
   0.000000000000000
   0.000000000000000
   0.000000000000000
   0.000000000000000
   0.000000000000000
   0.000000000000000
   0.000000000000000
   0.000000000000000
   0.000000000000000
   0.000000000000000
   0.000000000000000
   0.000000000000000
   0.000000000000000
   0.000000000000000
   0.000000000000000
   0.000000000000000
   0.000000000000000
   0.000000000000000
   0.000000000000000
   0.000000000000000
   0.000000000000000
   0.000000000000000
   0.000000000000000
   0.000000000000000
   0.000000000000000
   0.000000000000000
   0.000000000000000
   0.000000000000000
   0.000000000000000
   0.000000000000000
   0.000000000000000
   0.000000000000000
   0.000000000000000
   0.000000000000000
   0.000000000000000
   0.000000000000000
   0.000000000000000
   0.000000000000000
   0.000000000000000
   0.000000000000000
   0.000000000000000
   0.000000000000000
   0.000000000000000
   0.000000000000000
   0.000000000000000
   0.000000000000000
   0.000000000000000
   0.000000000000000
   0.000000000000000
   0.000000000000000
   0.000000000000000
   0.000000000000000
   0.000000000000000
   0.000000000000000
   0.000000000000000
   0.000000000000000
   0.000000000000000
   0.000000000000000
   0.000000000000000
   0.000000000000000
   0.000000000000000
   0.000000000000000
   0.000000000000000
   0.000000000000000
   0.000000000000000
   0.000000000000000
   0.000000000000000
   0.000000000000000
   0.000000000000000
   0.000000000000000
   0.000000000000000
   0.000000000000000
   0.000000000000000
   0.000000000000000
   0.000000000000000
   0.000000000000000
   0.000000000000000
   0.000000000000000
   0.000000000000000
   0.000000000000000
   0.000000000000000
   0.000000000000000
   0.000000000000000
   0.000000000000000
   0.000000000000000
   0.000000000000000
   0.000000000000000
   0.000000000000000
   0.000000000000000
   0.000000000000000
   0.000000000000000
   0.000000000000000
   0.000000000000000
   0.000000000000000
   0.000000000000000
   0.000000000000000
   0.000000000000000
   0.000000000000000
   0.000000000000000
   0.000000000000000
   0.000000000000000
   0.000000000000000
   0.000000000000000
   0.000000000000000
   0.000000000000000
   0.000000000000000
   0.000000000000000
   0.000000000000000
   0.000000000000000
   0.000000000000000
   0.000000000000000
   0.000000000000000
   0.000000000000000
   0.000000000000000
   0.000000000000000
   0.000000000000000
   0.000000000000000
   0.000000000000000
   0.000000000000000
   0.000000000000000
   0.000000000000000
   0.000000000000000
   0.000000000000000
   0.000000000000000
   0.000000000000000
   0.000000000000000
   0.000000000000000
   0.000000000000000
   0.000000000000000
   0.000000000000000
   0.000000000000000
   0.000000000000000
   0.000000000000000
   0.000000000000000
   0.000000000000000
   0.000000000000000
   0.000000000000000
   0.000000000000000
   0.000000000000000
   0.000000000000000
   0.000000000000000
   0.000000000000000
   0.000000000000000
   0.000000000000000
   0.000000000000000
   0.000000000000000
   0.000000000000000
   0.000000000000000
   0.000000000000000
   0.000000000000000
   0.000000000000000
   0.000000000000000
   0.000000000000000
   0.000000000000000
   0.000000000000000
   0.000000000000000
   0.000000000000000
   0.000000000000000
   0.000000000000000
   0.000000000000000
   0.000000000000000
   0.000000000000000
   0.000000000000000
   0.000000000000000
   0.000000000000000
   0.000000000000000
   0.000000000000000
   0.000000000000000
   0.000000000000000
   0.000000000000000
   0.000000000000000
   0.000000000000000
   0.000000000000000
   0.000000000000000
   0.000000000000000
   0.000000000000000
   0.000000000000000
   0.000000000000000
   0.000000000000000
   0.000000000000000
   0.000000000000000
   0.000000000000000
   0.000000000000000
   0.000000000000000
   0.000000000000000
   0.000000000000000
   0.000000000000000
   0.000000000000000
   0.000000000000000
   0.000000000000000
   0.000000000000000
   0.000000000000000
   0.000000000000000
   0.000000000000000
   0.000000000000000
   0.000000000000000
   0.000000000000000
   0.000000000000000
   0.000000000000000
   0.000000000000000
   0.000000000000000
   0.000000000000000
   0.000000000000000
   0.000000000000000
   0.000000000000000
   0.000000000000000
   0.000000000000000
   0.000000000000000
   0.000000000000000
   0.000000000000000
   0.000000000000000
   0.000000000000000
   0.000000000000000
   0.000000000000000
   0.000000000000000
   0.000000000000000
   0.000000000000000
   0.000000000000000
   0.000000000000000
   0.000000000000000
   0.000000000000000
   0.000000000000000
   0.000000000000000
   0.000000000000000
   0.000000000000000
   0.000000000000000
   0.000000000000000
   0.000000000000000
   0.000000000000000
   0.000000000000000
   0.000000000000000
   0.000000000000000
   0.000000000000000
   0.000000000000000
   0.000000000000000
   0.000000000000000
   0.000000000000000
   0.000000000000000
   0.000000000000000
   0.000000000000000
   0.000000000000000
   0.000000000000000
   0.000000000000000
   0.000000000000000
   0.000000000000000
   0.000000000000000
   0.000000000000000
   0.000000000000000
   0.000000000000000
   0.000000000000000
   0.000000000000000
   0.000000000000000
   0.000000000000000
   0.000000000000000
   0.000000000000000
   0.000000000000000
   0.000000000000000
   0.000000000000000
   0.000000000000000
   0.000000000000000
   0.000000000000000
   0.000000000000000
   0.000000000000000
   0.000000000000000
   0.000000000000000
   0.000000000000000
   0.000000000000000
   0.000000000000000
   0.000000000000000
   0.000000000000000
   0.000000000000000
   0.000000000000000
   0.000000000000000
   0.000000000000000
   0.000000000000000
   0.000000000000000
   0.000000000000000
   0.000000000000000
   0.000000000000000
   0.000000000000000
   0.000000000000000
   0.000000000000000
   0.000000000000000
   0.000000000000000
   0.000000000000000
   0.000000000000000
   0.000000000000000
   0.000000000000000
   0.000000000000000
   0.000000000000000
   0.000000000000000
   0.000000000000000
   0.000000000000000
   0.000000000000000
   0.000000000000000
   0.000000000000000
   0.000000000000000
   0.000000000000000
   0.000000000000000
   0.000000000000000
   0.000000000000000
   0.000000000000000
   0.000000000000000
   0.000000000000000
   0.000000000000000
   0.000000000000000
   0.000000000000000
   0.000000000000000
   0.000000000000000
   0.000000000000000
   0.000000000000000
   0.000000000000000
   0.000000000000000
   0.000000000000000
   0.000000000000000
   0.000000000000000
   0.000000000000000
   0.000000000000000
   0.000000000000000
   0.000000000000000
   0.000000000000000
   0.000000000000000
   0.000000000000000
   0.000000000000000
   0.000000000000000
   0.000000000000000
   0.000000000000000
   0.000000000000000
   0.000000000000000
   0.000000000000000
   0.000000000000000
   0.000000000000000
   0.000000000000000
   0.000000000000000
   0.000000000000000
   0.000000000000000
   0.000000000000000
   0.000000000000000
   0.000000000000000
   0.000000000000000
   0.000000000000000
   0.000000000000000
   0.000000000000000
   0.000000000000000
   0.000000000000000
   0.000000000000000
   0.000000000000000
   0.000000000000000
   0.000000000000000
   0.000000000000000
   0.000000000000000