:RELAXSTEP: 39
:E(Ha): -5.500467433180504E+03
:R(Bohr):
   1.984609412570355    0.995735886371649   47.399007175835898
   0.165952229411124    2.608397719401234   28.382460970751222
   4.771120902307031    2.937346110567144   28.384601074865568
   9.707104571350872    2.936785206520273   28.384211445006049
   2.303680083077127    6.791646080785246   28.382692002910357
   7.235943765800152    6.801417133337550   28.385369888024293
  12.174259234240960    6.793388872726327   28.384868861127266
   0.164851697512660    8.181734595176113   32.309354307427839
   4.772287710081543    8.183268754689717   32.306644557776920
   9.706347228543821    8.183423407858029   32.306575079092688
   2.306116477339540    4.003834180522497   32.310662813558693
   7.236797815847939    4.003691603930229   32.310311613663430
  12.171806582022544    4.003402641352793   32.309261573387900
   2.305525208620929    1.560076008571050   36.236478394483143
   7.235579168996302    1.559010742004868   36.235656825045517
  12.169917978583930    1.558068372921042   36.232018005542024
   0.165648994859120    5.734880330394330   36.238270268826412
   4.771069835155862    5.735655788042716   36.239709727700209
   9.706856353345545    5.735761619702235   36.240337871975967
  14.306670817654101    2.634998665524318   40.162995484231381
   4.766957166300590    2.630363243721667   40.161365595015830
   9.700239425379792    2.630720908424439   40.161882088495432
   2.303884735200660    7.114020623786452   40.163297155661013
   7.236219476238866    7.116661216590405   40.163304248795207
  12.168202753282696    7.112180172371808   40.164272553664823
   0.167372877784916    0.156675831822685   44.108964617680357
   4.774106311156610    0.159757804240031   44.095554546196112
   9.706222656513757    0.168085231503261   44.093322378006889
   2.305155535303711    4.024812931681175   44.087724709159119
   7.237521774533091    4.347333200641562   44.086181451821986
  12.168068433363237    4.349424672289394   44.087962118195101
   2.292422453061490    1.536537950526741   49.488699625698722
:ISFD: 0
:ISRESET: 0
:STEP: 9
:DX:
   0.010057316543376
   0.016446244126251
   0.062746552063665
  -0.006090490655365
  -0.000493339062324
  -0.008997658898618
   0.002447268756442
  -0.003193320321226
  -0.009468125881138
   0.000209200525603
  -0.005772695428536
  -0.009748057061834
  -0.002034255985465
  -0.000469636505106
  -0.009951443926742
  -0.002825197171630
   0.006701401156771
  -0.007405626045344
   0.006575218193529
   0.002759700508948
  -0.004999584393033
   0.000624861397232
   0.004126707274223
  -0.010166123702255
   0.011660300599744
   0.003483153373914
  -0.008765932409936
   0.004698719135872
   0.002892470959170
  -0.007444234927235
  -0.000076952965617
   0.000415293995533
  -0.003728170394339
  -0.000363702341078
  -0.001331759179671
  -0.003123951348243
   0.004245491816881
  -0.001503210413510
  -0.002209989879553
  -0.002657048415287
   0.005171653810589
   0.008000535752487
   0.001597801407522
  -0.000118554923565
   0.001577931754483
   0.000036355193446
  -0.000652172450994
  -0.009912476431175
  -0.003214115450074
  -0.009499246814509
   0.000857404268679
   0.002406721398120
   0.003508832057373
   0.001769789563653
   0.000349580473605
  -0.009452747515313
   0.000114938924597
   0.000903441309024
   0.001791664825183
   0.007000507565536
  -0.004507495248458
   0.001217013839330
   0.001296679881769
  -0.011510173194040
   0.002325195757248
  -0.001285947197907
  -0.003245561890503
  -0.002539541282602
   0.005472431282890
   0.001636117678458
  -0.002092141675518
   0.006539259807063
  -0.001129754600401
  -0.004615346847029
   0.006144878400086
   0.002141926849316
  -0.001952468665597
   0.005270022592505
   0.003659775450945
  -0.002521410514445
   0.010554888836296
  -0.001812566818156
   0.001924995913707
   0.012571431783655
  -0.003868985342929
  -0.000585791347588
  -0.001475188671002
  -0.001236255668599
   0.006746544463317
   0.012524362997461
   0.002266072660166
   0.005636793596817
   0.016036665983719
  -0.010943613641684
  -0.018354282710841
  -0.059795770290172
   0.006761395471290
   0.011513986707209
   0.044216652564202
  -0.004001614725699
  -0.000305593592433
  -0.006729490353660
   0.001411463786619
  -0.002525891009856
  -0.007283353187244
   0.000032432705131
  -0.004235112536747
  -0.007415283046317
  -0.001214354774421
  -0.000639709927640
  -0.007572503677437
  -0.001718214542350
   0.004623452769419
  -0.005632414041742
   0.004063010445607
   0.001651236163393
  -0.003616438331481
   0.001095054790024
   0.002779502767002
  -0.007228990617698
   0.007792624228776
   0.002473816461311
  -0.006143919053855
   0.003446505672535
   0.001814136661313
  -0.005121268814570
   0.000198046099319
   0.000436156180652
  -0.002702712334788
  -0.000168063249918
  -0.000889748794626
  -0.002354980536076
   0.002860879740238
  -0.000924666152833
  -0.001901633024495
  -0.001974809607851
   0.003812883040321
   0.005139391233932
   0.000925811794145
  -0.000144738066200
   0.001065696298021
   0.000042088867772
  -0.001165832944684
  -0.006534161300557
  -0.002105044078036
  -0.006467440065924
   0.000518934455258
   0.001317441482864
   0.003167740303194
   0.001141953679422
   0.000129344377976
  -0.006946514820406
  -0.000009194015675
  -0.000460629744525
   0.000935128808950
   0.004833094371129
  -0.003134194919803
   0.000636085875455
   0.001266031556774
  -0.007478521269128
   0.001433297088855
  -0.000375610054199
  -0.002380837273798
  -0.001943249335211
   0.003947203913917
   0.000963810522220
  -0.001680795268761
   0.004608797187807
  -0.001077458689261
  -0.003316866617389
   0.004297508497231
   0.002324141837001
  -0.001149984002021
   0.005621562643839
   0.002671684548505
  -0.001810433730067
   0.006983430923775
  -0.001150831043550
   0.001880606122628
   0.009127212819060
  -0.002570866332111
  -0.000288190896840
  -0.001733856912246
  -0.001195372977546
   0.005083158774306
   0.009277504985803
   0.001557133825159
   0.004142405369004
   0.011595296553274
  -0.006962056967191
  -0.011948825331371
  -0.041284462381398
  -0.002111590807891
  -0.003444546247354
  -0.012614088956290
   0.000860136024941
   0.000074346541783
   0.001280914332547
  -0.000330340121629
   0.000444902400584
   0.001373288637968
  -0.000024654684781
   0.000759437103174
   0.001404683439056
   0.000284795113804
   0.000106270398342
   0.001471691921189
   0.000386340148102
  -0.000855847931893
   0.001039081410585
  -0.000917543538080
  -0.000357810619490
   0.000635172571751
  -0.000183846086077
  -0.000557964129346
   0.001423599514666
  -0.001663419685134
  -0.000474422360389
   0.001211971329440
  -0.000710794493076
  -0.000392051063036
   0.001000203404331
  -0.000016518578526
  -0.000068979222207
   0.000446982210221
   0.000065652544625
   0.000181914379320
   0.000378686583794
  -0.000612992760171
   0.000213403386757
   0.000264921425895
   0.000366213031399
  -0.000830266775151
  -0.001234964060693
  -0.000202789240989
  -0.000053806500109
  -0.000349639189963
  -0.000007916660747
   0.000114890356850
   0.001333092053599
   0.000433143963498
   0.001267553197297
  -0.000239521178187
  -0.000301036070776
  -0.000614884884193
  -0.000364330762409
  -0.000027971340156
   0.001303062362231
  -0.000120879164008
  -0.000082250124466
  -0.000218395129148
  -0.001043641035331
   0.000631815243867
  -0.000157656772761
  -0.000243556281809
   0.001614304068930
  -0.000281539293722
   0.000054404761350
   0.000470439561503
   0.000338918028210
  -0.000826683676038
  -0.000214273441263
   0.000299642815465
  -0.000983477923953
   0.000161384255019
   0.000622636972147
  -0.000941042241372
  -0.000286189081745
   0.000295156297344
  -0.000769632717152
  -0.000460137436181
   0.000332152945228
  -0.001569469577554
   0.000246364477015
  -0.000257306122972
  -0.001841053265274
   0.000566164283959
   0.000160247954537
   0.000066153538747
   0.000207734583037
  -0.000904092199659
  -0.001900042802966
  -0.000340157963519
  -0.000755418875857
  -0.002385419348002
   0.002199934815507
   0.003710452988017
   0.014042595045858
   0.000127633998198
   0.000370235497531
   0.002011113564265
  -0.000219302567524
  -0.000019603628198
  -0.000541178314940
   0.000057988230277
  -0.000216519548006
  -0.000596879224521
  -0.000003481010356
  -0.000352076820939
  -0.000607910335457
  -0.000060481359446
  -0.000074223710859
  -0.000596531616893
  -0.000092128016528
   0.000353549774311
  -0.000481272838144
   0.000209322432482
   0.000091927644820
  -0.000340124114910
   0.000101894395437
   0.000171654820903
  -0.000613226377766
   0.000427716605402
   0.000166860688315
  -0.000532749710061
   0.000206644925036
   0.000106441225638
  -0.000461826060352
   0.000035689816236
   0.000035195911735
  -0.000347013556940
  -0.000003427308370
  -0.000061807376814
  -0.000326596115869
   0.000163529523482
  -0.000057345133671
  -0.000314858364668
  -0.000144848470441
   0.000217166680892
   0.000049185390885
   0.000043526725432
  -0.000065435702278
  -0.000151087043193
   0.000000990101139
  -0.000169445417852
  -0.000553279299098
  -0.000112482916240
  -0.000441864720908
  -0.000195158910046
   0.000049807617266
   0.000234025627952
  -0.000161600994261
  -0.000004753437370
  -0.000524912212974
  -0.000207249020136
  -0.000131395292904
   0.000017768225840
   0.000272918359343
  -0.000204927629676
   0.000004533041845
   0.000092029928808
  -0.000411345501112
   0.000075586706940
  -0.000034462779880
  -0.000168055424822
  -0.000161885873272
   0.000242048222560
   0.000039187530498
  -0.000141627048736
   0.000239888133763
  -0.000092407495998
  -0.000233208984695
   0.000224070454550
   0.000234162105150
  -0.000041148329534
   0.000730655562734
   0.000218406640343
  -0.000139023353284
   0.000482164255708
  -0.000066486756158
   0.000192510049761
   0.000724313684501
  -0.000136622097476
   0.000037914440619
  -0.000152768250970
  -0.000111970066422
   0.000418846815825
   0.000732269103594
   0.000100090289832
   0.000333897382784
   0.000856629210297
  -0.000052475585365
  -0.000127986673692
   0.000558487057113
   0.000055450928423
   0.000658683791563
   0.003539405427873
  -0.000294449334477
  -0.000017907351732
  -0.000946506501698
   0.000075205633047
  -0.000339937603295
  -0.001024732155145
  -0.000024738230877
  -0.000543447459344
  -0.001028561134223
  -0.000042203745689
  -0.000107015119777
  -0.000982519021687
  -0.000105678847711
   0.000514260222437
  -0.000871370354588
   0.000220283517834
   0.000090704274057
  -0.000677040393668
   0.000143041521324
   0.000247925070466
  -0.000864901000867
   0.000554856786231
   0.000250915344539
  -0.000748346248336
   0.000287964900219
   0.000109606609609
  -0.000680301978718
   0.000062169775325
   0.000069057069273
  -0.000562731459922
   0.000026450290647
  -0.000081603580018
  -0.000543322407246
   0.000208688962632
  -0.000046005669387
  -0.000523418809856
  -0.000222902559721
   0.000204488503466
   0.000237193236572
   0.000050019501185
  -0.000182342989159
  -0.000061162104110
  -0.000000106946990
  -0.000342909278332
  -0.000538126054415
  -0.000162657321371
  -0.000674671020476
  -0.000127966060234
   0.000062805600714
   0.000300384464879
  -0.000069155930937
   0.000004000481834
  -0.000826388842012
  -0.000195479621482
  -0.000318884305987
   0.000000105443455
   0.000241342238468
  -0.000275670466921
  -0.000010924461890
   0.000019433315650
  -0.000548692747364
   0.000133319038008
  -0.000129712088047
  -0.000236479512963
  -0.000270893695880
   0.000183545069802
   0.000061201827793
  -0.000241599345959
   0.000257849299153
  -0.000193840636811
  -0.000397783750133
   0.000206475706833
   0.000481939578503
  -0.000000583463833
   0.001046579833528
   0.000295777733801
  -0.000171830957527
   0.000404651656595
  -0.000087980935627
   0.000384533507419
   0.000695602007475
  -0.000161170429222
   0.000056238999068
  -0.000515700270277
  -0.000134431706906
   0.000650303020462
   0.000667805040990
   0.000099535996135
   0.000499681172478
   0.000865210511101
   0.000120494692994
   0.000085638057570
   0.002725960251432
  -0.000028062606268
   0.001325358582629
   0.007628991701353
  -0.000168740402740
  -0.000043409369894
  -0.001030514971582
   0.000005100688285
  -0.000370308878057
  -0.001127863620873
  -0.000033389342915
  -0.000555034584089
  -0.001131487047097
  -0.000025552616561
  -0.000157207499078
  -0.001105557644312
  -0.000063848078416
   0.000385181886363
  -0.001013823009572
   0.000096564652040
   0.000012311160908
  -0.000858142911060
   0.000183161176640
   0.000111179381834
  -0.000823872852123
   0.000324721277155
   0.000137685368017
  -0.000742821538594
   0.000186493363007
   0.000004811635774
  -0.000598971822505
   0.000078442345404
   0.000028629457286
  -0.000640396516893
   0.000007018753848
  -0.000096918113854
  -0.000582980977832
   0.000115989501071
  -0.000080461653815
  -0.000613478261798
  -0.000165733650268
   0.000139046702977
  -0.000578754319655
   0.000014286329165
  -0.000185449565765
  -0.000668160868457
  -0.000030826200469
  -0.000403522654940
  -0.000931643291381
  -0.000107067759392
  -0.000514322943613
  -0.000732918740646
  -0.000001123536094
   0.000285976073982
  -0.000671607310203
  -0.000027105489499
  -0.000724928034955
  -0.000688679086188
  -0.000304813012411
  -0.000176737321040
   0.000027201111301
  -0.000229077288384
  -0.000151098213026
  -0.000149257499857
  -0.000337908023367
  -0.000024875038196
  -0.000307538531317
  -0.000215766582697
  -0.000258891121268
   0.000011880945181
   0.000006982823107
  -0.000228807661421
  -0.000113472753988
  -0.000143774776348
  -0.000314757071698
  -0.000087507949509
   0.000288404779917
   0.000008069632207
   0.000650385346560
   0.000310846536768
  -0.000160230925842
  -0.000224663150469
  -0.000040070160583
   0.000338448458502
   0.000130711920235
  -0.000081597715602
   0.000067909538387
  -0.001002166243282
  -0.000162594346463
   0.000531208584044
   0.000130392116922
   0.000051268069686
   0.000423825043987
   0.000254611305365
   0.000497771292387
   0.000647319143652
   0.007592106472281
  -0.000537555124306
   0.007052382398431
   0.042488501495207
  -0.000037116419484
  -0.000273631482669
  -0.003439549213997
   0.000058098041494
  -0.000069166529235
  -0.003360156606568
  -0.000079521857694
   0.000001715988461
  -0.003216322522501
   0.000015444521177
  -0.000249123561066
  -0.003182832648058
   0.000185847718360
  -0.000665783445214
  -0.003417994690757
  -0.000346934935687
  -0.000497334620832
  -0.003582916596464
  -0.000174872016438
  -0.000280491407734
  -0.003547720953293
  -0.000297333861060
  -0.000283782471650
  -0.003649512953679
  -0.000196626796441
  -0.000152850421024
  -0.004317787954236
  -0.000113349379752
  -0.000231841570193
  -0.003838339746615
   0.000056084172951
  -0.000150780601641
  -0.004397969147668
  -0.000111944018547
  -0.000176244268521
  -0.004118772753174
  -0.000111260873300
  -0.000712267016245
  -0.000787964184461
  -0.000236328370805
  -0.000547361670775
  -0.001082555936236
   0.000249906015274
  -0.000393141168922
  -0.000485010762056
   0.000069092333513
  -0.000068206227898
  -0.000977367433549
  -0.000210542181488
  -0.000540510105895
  -0.001322375621029
   0.000041515233621
   0.000082685659195
  -0.001578710690403
  -0.000241846446430
  -0.000315165102552
  -0.002688850315614
   0.000163989171772
  -0.000150791744909
  -0.002402181571377
   0.000336060434641
  -0.000139093515994
  -0.001872858753224
  -0.000043931469500
  -0.000225255582195
  -0.002686778819729
  -0.000043039378562
  -0.000419649469577
  -0.002066788981224
  -0.000007586460821
  -0.000418000342650
  -0.002263531110820
   0.000790731103152
   0.000196146324936
  -0.000545066826753
  -0.000513229982858
  -0.000088475450915
  -0.001252987269552
   0.000081156910452
  -0.000230742024424
  -0.001254563837108
   0.000040305610406
  -0.000266491116305
  -0.000323047874559
   0.000092042648936
  -0.000550754836674
  -0.001253024327006
   0.000043629279141
  -0.000580611048413
  -0.001341740878566
   0.001079116378305
   0.001344616433084
   0.027766779485155
  -0.001954958748126
  -0.004126866968528
  -0.014801465290859
   0.000009616587019
   0.000113965836961
   0.002925656284162
  -0.000045337664387
   0.000011177124943
   0.002740010723858
   0.000142317967502
  -0.000016608689190
   0.002593675483510
  -0.000045137541475
   0.000034373100015
   0.002463730382090
  -0.000337386000810
   0.000367311705392
   0.002878102648189
   0.000737246205910
   0.000347552083422
   0.003231325973616
   0.000291429033915
   0.000097560524729
   0.002409703928677
   0.000627594431179
   0.000095840801045
   0.002632108587001
   0.000393646775743
  -0.000017143236491
   0.003699760144620
   0.000124033723756
   0.000042640424634
   0.002903487275660
  -0.000111800714453
  -0.000097005946850
   0.003794802099698
   0.000302562995948
  -0.000130642827583
   0.003478272345404
   0.000154978925722
   0.000775684053268
  -0.001778679796374
   0.000454376147209
   0.000512018393060
  -0.001400440423552
  -0.000416086119714
   0.000295058624967
  -0.002562081365255
  -0.000170338247566
  -0.000268784121189
  -0.001557950803800
   0.000449129175079
   0.000416987228958
  -0.001015557552925
  -0.000059055997864
  -0.000351315800790
  -0.000692218890698
   0.000465409474142
   0.000132515156019
   0.001430541154392
  -0.000243741161599
  -0.000074258709001
   0.000756443540851
  -0.000754080688933
  -0.000108321714952
  -0.000061439448054
   0.000064293740314
   0.000168373599545
   0.001379336716852
   0.000180506712637
   0.000252626778252
   0.000213072892862
  -0.000063362052416
   0.000264511670836
   0.000595808007446
  -0.000916907166618
  -0.000326589327555
  -0.001913848373732
   0.000927685946914
  -0.000059381235540
  -0.000970979367544
  -0.000072668133802
  -0.000006046811466
  -0.000787004875392
  -0.000025402455002
   0.000012655359497
  -0.002219115539432
  -0.000261097362898
   0.000243105791031
  -0.000539096793084
   0.000121835348034
   0.000428427011714
  -0.000462060152756
   0.000030696864633
   0.000970580120852
  -0.009363899515463
  -0.000416836584757
  -0.001352790932322
  -0.005791663224976
   0.000316492947326
   0.000000653591737
  -0.000418050442825
  -0.000030225832987
   0.000175220779035
  -0.000217494488016
   0.000000794370980
   0.000318411494384
  -0.000155341941333
   0.000125932653988
   0.000142463821728
  -0.000090651324712
   0.000329791109491
  -0.000316175675461
  -0.000403564971126
  -0.000601460701956
  -0.000116540007038
  -0.000824148316617
  -0.000224927668765
  -0.000140231374344
   0.000243531518485
  -0.000796261628380
  -0.000139580212519
   0.000030641269056
  -0.000399469702979
  -0.000029629430028
  -0.000558330719002
  -0.000008538113847
   0.000009779778853
  -0.000290186531245
   0.000114562771085
   0.000210147042404
  -0.000731563509845
  -0.000354204692112
   0.000228683630962
  -0.000671186444364
   0.000157590536386
  -0.000491953896386
   0.001292735919364
  -0.000241019608571
  -0.000051163564769
   0.001343932471485
   0.000237191637801
   0.000142473240835
   0.002523478431392
   0.000276173830240
   0.000727370064810
   0.001450178148453
  -0.000260302178194
  -0.000312858987676
   0.001103963817926
   0.000066300606418
   0.000764249747880
   0.001040542768102
  -0.000005210293935
  -0.000045282384380
  -0.000315758651645
   0.000390216754213
   0.000073062072918
   0.000319691443501
   0.000986507986122
  -0.000003594296079
   0.000812394188500
   0.000198603323143
   0.000135914410782
  -0.000186263208143
  -0.000146746107465
   0.000155578615126
   0.000372649449993
   0.000257606114205
   0.000273294095035
   0.000228400430643
   0.000150912048177
   0.000195555858288
   0.000696162265733
  -0.000598265939898
   0.000172556179741
   0.000400597843779
   0.000135689296785
  -0.000162495612380
   0.000179594129840
   0.000201726138644
   0.000145853303573
   0.001819598309289
   0.000307326143938
  -0.000381777107872
   0.000014515386319
  -0.000132621532615
  -0.000407717320550
  -0.000188351707649
  -0.000037327682483
   0.000080523073715
  -0.003030052310365
   0.000000000000000
   0.000000000000000
   0.000000000000000
   0.000000000000000
   0.000000000000000
   0.000000000000000
   0.000000000000000
   0.000000000000000
   0.000000000000000
   0.000000000000000
   0.000000000000000
   0.000000000000000
   0.000000000000000
   0.000000000000000
   0.000000000000000
   0.000000000000000
   0.000000000000000
   0.000000000000000
   0.000000000000000
   0.000000000000000
   0.000000000000000
   0.000000000000000
   0.000000000000000
   0.000000000000000
   0.000000000000000
   0.000000000000000
   0.000000000000000
   0.000000000000000
   0.000000000000000
   0.000000000000000
   0.000000000000000
   0.000000000000000
   0.000000000000000
   0.000000000000000
   0.000000000000000
   0.000000000000000
   0.000000000000000
   0.000000000000000
   0.000000000000000
   0.000000000000000
   0.000000000000000
   0.000000000000000
   0.000000000000000
   0.000000000000000
   0.000000000000000
   0.000000000000000
   0.000000000000000
   0.000000000000000
   0.000000000000000
   0.000000000000000
   0.000000000000000
   0.000000000000000
   0.000000000000000
   0.000000000000000
   0.000000000000000
   0.000000000000000
   0.000000000000000
   0.000000000000000
   0.000000000000000
   0.000000000000000
   0.000000000000000
   0.000000000000000
   0.000000000000000
   0.000000000000000
   0.000000000000000
   0.000000000000000
   0.000000000000000
   0.000000000000000
   0.000000000000000
   0.000000000000000
   0.000000000000000
   0.000000000000000
   0.000000000000000
   0.000000000000000
   0.000000000000000
   0.000000000000000
   0.000000000000000
   0.000000000000000
   0.000000000000000
   0.000000000000000
   0.000000000000000
   0.000000000000000
   0.000000000000000
   0.000000000000000
   0.000000000000000
   0.000000000000000
   0.000000000000000
   0.000000000000000
   0.000000000000000
   0.000000000000000
   0.000000000000000
   0.000000000000000
   0.000000000000000
   0.000000000000000
   0.000000000000000
   0.000000000000000
   0.000000000000000
   0.000000000000000
   0.000000000000000
   0.000000000000000
   0.000000000000000
   0.000000000000000
   0.000000000000000
   0.000000000000000
   0.000000000000000
   0.000000000000000
   0.000000000000000
   0.000000000000000
   0.000000000000000
   0.000000000000000
   0.000000000000000
   0.000000000000000
   0.000000000000000
   0.000000000000000
   0.000000000000000
   0.000000000000000
   0.000000000000000
   0.000000000000000
   0.000000000000000
   0.000000000000000
   0.000000000000000
   0.000000000000000
   0.000000000000000
   0.000000000000000
   0.000000000000000
   0.000000000000000
   0.000000000000000
   0.000000000000000
   0.000000000000000
   0.000000000000000
   0.000000000000000
   0.000000000000000
   0.000000000000000
   0.000000000000000
   0.000000000000000
   0.000000000000000
   0.000000000000000
   0.000000000000000
   0.000000000000000
   0.000000000000000
   0.000000000000000
   0.000000000000000
   0.000000000000000
   0.000000000000000
   0.000000000000000
   0.000000000000000
   0.000000000000000
   0.000000000000000
   0.000000000000000
   0.000000000000000
   0.000000000000000
   0.000000000000000
   0.000000000000000
   0.000000000000000
   0.000000000000000
   0.000000000000000
   0.000000000000000
   0.000000000000000
   0.000000000000000
   0.000000000000000
   0.000000000000000
   0.000000000000000
   0.000000000000000
   0.000000000000000
   0.000000000000000
   0.000000000000000
   0.000000000000000
   0.000000000000000
   0.000000000000000
   0.000000000000000
   0.000000000000000
   0.000000000000000
   0.000000000000000
   0.000000000000000
   0.000000000000000
   0.000000000000000
   0.000000000000000
   0.000000000000000
   0.000000000000000
   0.000000000000000
   0.000000000000000
   0.000000000000000
   0.000000000000000
   0.000000000000000
   0.000000000000000
   0.000000000000000
   0.000000000000000
   0.000000000000000
   0.000000000000000
   0.000000000000000
   0.000000000000000
   0.000000000000000
   0.000000000000000
   0.000000000000000
   0.000000000000000
   0.000000000000000
   0.000000000000000
   0.000000000000000
   0.000000000000000
   0.000000000000000
   0.000000000000000
   0.000000000000000
   0.000000000000000
   0.000000000000000
   0.000000000000000
   0.000000000000000
   0.000000000000000
   0.000000000000000
   0.000000000000000
   0.000000000000000
   0.000000000000000
   0.000000000000000
   0.000000000000000
   0.000000000000000
   0.000000000000000
   0.000000000000000
   0.000000000000000
   0.000000000000000
   0.000000000000000
   0.000000000000000
   0.000000000000000
   0.000000000000000
   0.000000000000000
   0.000000000000000
   0.000000000000000
   0.000000000000000
   0.000000000000000
   0.000000000000000
   0.000000000000000
   0.000000000000000
   0.000000000000000
   0.000000000000000
   0.000000000000000
   0.000000000000000
   0.000000000000000
   0.000000000000000
   0.000000000000000
   0.000000000000000
   0.000000000000000
   0.000000000000000
   0.000000000000000
   0.000000000000000
   0.000000000000000
   0.000000000000000
   0.000000000000000
   0.000000000000000
   0.000000000000000
   0.000000000000000
   0.000000000000000
   0.000000000000000
   0.000000000000000
   0.000000000000000
   0.000000000000000
   0.000000000000000
   0.000000000000000
   0.000000000000000
   0.000000000000000
   0.000000000000000
   0.000000000000000
   0.000000000000000
   0.000000000000000
   0.000000000000000
   0.000000000000000
   0.000000000000000
   0.000000000000000
   0.000000000000000
   0.000000000000000
   0.000000000000000
   0.000000000000000
   0.000000000000000
   0.000000000000000
   0.000000000000000
   0.000000000000000
   0.000000000000000
   0.000000000000000
   0.000000000000000
   0.000000000000000
   0.000000000000000
   0.000000000000000
   0.000000000000000
   0.000000000000000
   0.000000000000000
   0.000000000000000
   0.000000000000000
   0.000000000000000
   0.000000000000000
   0.000000000000000
   0.000000000000000
   0.000000000000000
   0.000000000000000
   0.000000000000000
   0.000000000000000
   0.000000000000000
   0.000000000000000
   0.000000000000000
   0.000000000000000
   0.000000000000000
   0.000000000000000
   0.000000000000000
   0.000000000000000
   0.000000000000000
   0.000000000000000
   0.000000000000000
   0.000000000000000
   0.000000000000000
   0.000000000000000
   0.000000000000000
   0.000000000000000
   0.000000000000000
   0.000000000000000
   0.000000000000000
   0.000000000000000
   0.000000000000000
   0.000000000000000
   0.000000000000000
   0.000000000000000
   0.000000000000000
   0.000000000000000
   0.000000000000000
   0.000000000000000
   0.000000000000000
   0.000000000000000
   0.000000000000000
   0.000000000000000
   0.000000000000000
   0.000000000000000
   0.000000000000000
   0.000000000000000
   0.000000000000000
   0.000000000000000
   0.000000000000000
   0.000000000000000
   0.000000000000000
   0.000000000000000
   0.000000000000000
   0.000000000000000
   0.000000000000000
   0.000000000000000
   0.000000000000000
   0.000000000000000
   0.000000000000000
   0.000000000000000
   0.000000000000000
   0.000000000000000
   0.000000000000000
   0.000000000000000
   0.000000000000000
   0.000000000000000
   0.000000000000000
   0.000000000000000
   0.000000000000000
   0.000000000000000
   0.000000000000000
   0.000000000000000
   0.000000000000000
   0.000000000000000
   0.000000000000000
   0.000000000000000
   0.000000000000000
   0.000000000000000
   0.000000000000000
   0.000000000000000
   0.000000000000000
   0.000000000000000
   0.000000000000000
   0.000000000000000
   0.000000000000000
   0.000000000000000
   0.000000000000000
   0.000000000000000
   0.000000000000000
   0.000000000000000
   0.000000000000000
   0.000000000000000
   0.000000000000000
   0.000000000000000
   0.000000000000000
   0.000000000000000
   0.000000000000000
   0.000000000000000
   0.000000000000000
   0.000000000000000
   0.000000000000000
   0.000000000000000
   0.000000000000000
   0.000000000000000
   0.000000000000000
   0.000000000000000
   0.000000000000000
   0.000000000000000
   0.000000000000000
   0.000000000000000
   0.000000000000000
   0.000000000000000
   0.000000000000000
   0.000000000000000
   0.000000000000000
   0.000000000000000
   0.000000000000000
   0.000000000000000
   0.000000000000000
   0.000000000000000
   0.000000000000000
   0.000000000000000
   0.000000000000000
   0.000000000000000
   0.000000000000000
   0.000000000000000
   0.000000000000000
   0.000000000000000
   0.000000000000000
   0.000000000000000
   0.000000000000000
   0.000000000000000
   0.000000000000000
   0.000000000000000
   0.000000000000000
   0.000000000000000
   0.000000000000000
   0.000000000000000
   0.000000000000000
   0.000000000000000
   0.000000000000000
   0.000000000000000
   0.000000000000000
   0.000000000000000
   0.000000000000000
   0.000000000000000
   0.000000000000000
   0.000000000000000
   0.000000000000000
   0.000000000000000
   0.000000000000000
   0.000000000000000
   0.000000000000000
   0.000000000000000
   0.000000000000000
   0.000000000000000
   0.000000000000000
   0.000000000000000
   0.000000000000000
   0.000000000000000
   0.000000000000000
   0.000000000000000
   0.000000000000000
   0.000000000000000
   0.000000000000000
   0.000000000000000
   0.000000000000000
   0.000000000000000
   0.000000000000000
   0.000000000000000
   0.000000000000000
   0.000000000000000
   0.000000000000000
   0.000000000000000
   0.000000000000000
   0.000000000000000
   0.000000000000000
   0.000000000000000
   0.000000000000000
   0.000000000000000
   0.000000000000000
   0.000000000000000